 Entering Gaussian System, Link 0=g16
 Input=MeCl_postcomplex.gjf
 Output=MeCl_postcomplex.out
 Initial command:
 /n/sw/g16_nehalem/g16/l1.exe "/scratch/dhuang9_MeCl_postcomplex/Gau-53855.inp" -scrdir="/scratch/dhuang9_MeCl_postcomplex/"
 Entering Link 1 = /n/sw/g16_nehalem/g16/l1.exe PID=     53864.
  
 Copyright (c) 1988,1990,1992,1993,1995,1998,2003,2009,2016,
            Gaussian, Inc.  All Rights Reserved.
  
 This is part of the Gaussian(R) 16 program.  It is based on
 the Gaussian(R) 09 system (copyright 2009, Gaussian, Inc.),
 the Gaussian(R) 03 system (copyright 2003, Gaussian, Inc.),
 the Gaussian(R) 98 system (copyright 1998, Gaussian, Inc.),
 the Gaussian(R) 94 system (copyright 1995, Gaussian, Inc.),
 the Gaussian 92(TM) system (copyright 1992, Gaussian, Inc.),
 the Gaussian 90(TM) system (copyright 1990, Gaussian, Inc.),
 the Gaussian 88(TM) system (copyright 1988, Gaussian, Inc.),
 the Gaussian 86(TM) system (copyright 1986, Carnegie Mellon
 University), and the Gaussian 82(TM) system (copyright 1983,
 Carnegie Mellon University). Gaussian is a federally registered
 trademark of Gaussian, Inc.
  
 This software contains proprietary and confidential information,
 including trade secrets, belonging to Gaussian, Inc.
  
 This software is provided under written license and may be
 used, copied, transmitted, or stored only in accord with that
 written license.
  
 The following legend is applicable only to US Government
 contracts under FAR:
  
                    RESTRICTED RIGHTS LEGEND
  
 Use, reproduction and disclosure by the US Government is
 subject to restrictions as set forth in subparagraphs (a)
 and (c) of the Commercial Computer Software - Restricted
 Rights clause in FAR 52.227-19.
  
 Gaussian, Inc.
 340 Quinnipiac St., Bldg. 40, Wallingford CT 06492
  
  
 ---------------------------------------------------------------
 Warning -- This program may not be used in any manner that
 competes with the business of Gaussian, Inc. or will provide
 assistance to any competitor of Gaussian, Inc.  The licensee
 of this program is prohibited from giving any competitor of
 Gaussian, Inc. access to this program.  By using this program,
 the user acknowledges that Gaussian, Inc. is engaged in the
 business of creating and licensing software in the field of
 computational chemistry and represents and warrants to the
 licensee that it is not a competitor of Gaussian, Inc. and that
 it will not use this program in any manner prohibited above.
 ---------------------------------------------------------------
  

 Cite this work as:
 Gaussian 16, Revision A.03,
 M. J. Frisch, G. W. Trucks, H. B. Schlegel, G. E. Scuseria, 
 M. A. Robb, J. R. Cheeseman, G. Scalmani, V. Barone, 
 G. A. Petersson, H. Nakatsuji, X. Li, M. Caricato, A. V. Marenich, 
 J. Bloino, B. G. Janesko, R. Gomperts, B. Mennucci, H. P. Hratchian, 
 J. V. Ortiz, A. F. Izmaylov, J. L. Sonnenberg, D. Williams-Young, 
 F. Ding, F. Lipparini, F. Egidi, J. Goings, B. Peng, A. Petrone, 
 T. Henderson, D. Ranasinghe, V. G. Zakrzewski, J. Gao, N. Rega, 
 G. Zheng, W. Liang, M. Hada, M. Ehara, K. Toyota, R. Fukuda, 
 J. Hasegawa, M. Ishida, T. Nakajima, Y. Honda, O. Kitao, H. Nakai, 
 T. Vreven, K. Throssell, J. A. Montgomery, Jr., J. E. Peralta, 
 F. Ogliaro, M. J. Bearpark, J. J. Heyd, E. N. Brothers, K. N. Kudin, 
 V. N. Staroverov, T. A. Keith, R. Kobayashi, J. Normand, 
 K. Raghavachari, A. P. Rendell, J. C. Burant, S. S. Iyengar, 
 J. Tomasi, M. Cossi, J. M. Millam, M. Klene, C. Adamo, R. Cammi, 
 J. W. Ochterski, R. L. Martin, K. Morokuma, O. Farkas, 
 J. B. Foresman, and D. J. Fox, Gaussian, Inc., Wallingford CT, 2016.
 
 ******************************************
 Gaussian 16:  ES64L-G16RevA.03 25-Dec-2016
                 6-Nov-2017 
 ******************************************
 %mem=1GB
 -----------------------
 #p am1 opt freq=noraman
 -----------------------
 1/18=20,19=15,26=1,38=1/1,3;
 2/9=110,12=2,17=6,18=5,40=1/2;
 3/5=2,25=1,41=700000,71=1/1,2,3;
 4/35=1/1;
 5/5=2,35=1,38=5/2;
 6/7=2,8=2,9=2,10=2,28=1/1;
 7//1,2,3,16;
 1/18=20,19=15,26=1/3(2);
 2/9=110/2;
 99//99;
 2/9=110/2;
 3/5=2,25=1,41=700000,71=1,135=20/1,2,3;
 4/5=5,16=3,35=1/1;
 5/5=2,35=1,38=5/2;
 7//1,2,3,16;
 1/18=20,19=15,26=1/3(-5);
 2/9=110/2;
 6/7=2,8=2,9=2,10=2,19=2,28=1/1;
 99/9=1/99;
 Leave Link    1 at Mon Nov  6 15:52:06 2017, MaxMem=   134217728 cpu:               0.0 elap:               0.1
 (Enter /n/sw/g16_nehalem/g16/l101.exe)
 ---------
 MeCl post
 ---------
 Symbolic Z-matrix:
 Charge = -1 Multiplicity = 1
 C                     0.38388   0.00001   0. 
 H                    -0.03976  -0.60023  -0.91843 
 H                    -0.03976  -0.49526   0.97903 
 H                    -0.03973   1.09551  -0.0606 
 Cl                    2.09012  0.         0. 
 Cl                   -2.21812  0.         0. 
 
 Add virtual bond connecting atoms Cl6        and H2         Dist= 4.61D+00.
 Add virtual bond connecting atoms Cl6        and H3         Dist= 4.61D+00.
 Add virtual bond connecting atoms Cl6        and H4         Dist= 4.61D+00.
 ITRead=  0  0  0  0  0  0
 MicOpt= -1 -1 -1 -1 -1 -1
 NAtoms=      6 NQM=        6 NQMF=       0 NMMI=      0 NMMIF=      0
                NMic=       0 NMicF=      0.
                    Isotopes and Nuclear Properties:
 (Nuclear quadrupole moments (NQMom) in fm**2, nuclear magnetic moments (NMagM)
  in nuclear magnetons)

  Atom         1           2           3           4           5           6
 IAtWgt=          12           1           1           1          35          35
 AtmWgt=  12.0000000   1.0078250   1.0078250   1.0078250  34.9688527  34.9688527
 NucSpn=           0           1           1           1           3           3
 AtZEff=   0.0000000   0.0000000   0.0000000   0.0000000   0.0000000   0.0000000
 NQMom=    0.0000000   0.0000000   0.0000000   0.0000000  -8.1650000  -8.1650000
 NMagM=    0.0000000   2.7928460   2.7928460   2.7928460   0.8218740   0.8218740
 AtZNuc=   6.0000000   1.0000000   1.0000000   1.0000000  17.0000000  17.0000000
 Leave Link  101 at Mon Nov  6 15:52:06 2017, MaxMem=   134217728 cpu:               0.4 elap:               0.4
 (Enter /n/sw/g16_nehalem/g16/l103.exe)

 GradGradGradGradGradGradGradGradGradGradGradGradGradGradGradGradGradGrad
 Berny optimization.
 Initialization pass.
                           ----------------------------
                           !    Initial Parameters    !
                           ! (Angstroms and Degrees)  !
 --------------------------                            --------------------------
 ! Name  Definition              Value          Derivative Info.                !
 --------------------------------------------------------------------------------
 ! R1    R(1,2)                  1.1761         estimate D2E/DX2                !
 ! R2    R(1,3)                  1.1761         estimate D2E/DX2                !
 ! R3    R(1,4)                  1.1761         estimate D2E/DX2                !
 ! R4    R(1,5)                  1.7062         estimate D2E/DX2                !
 ! R5    R(2,6)                  2.4391         estimate D2E/DX2                !
 ! R6    R(3,6)                  2.4391         estimate D2E/DX2                !
 ! R7    R(4,6)                  2.4391         estimate D2E/DX2                !
 ! A1    A(2,1,3)              107.7809         estimate D2E/DX2                !
 ! A2    A(2,1,4)              107.7821         estimate D2E/DX2                !
 ! A3    A(2,1,5)              111.1123         estimate D2E/DX2                !
 ! A4    A(3,1,4)              107.782          estimate D2E/DX2                !
 ! A5    A(3,1,5)              111.1123         estimate D2E/DX2                !
 ! A6    A(4,1,5)              111.1116         estimate D2E/DX2                !
 ! A7    A(1,2,6)               84.3797         estimate D2E/DX2                !
 ! A8    A(1,3,6)               84.3796         estimate D2E/DX2                !
 ! A9    A(1,4,6)               84.3783         estimate D2E/DX2                !
 ! A10   A(2,6,3)               45.8551         estimate D2E/DX2                !
 ! A11   A(2,6,4)               45.8549         estimate D2E/DX2                !
 ! A12   A(3,6,4)               45.8549         estimate D2E/DX2                !
 ! D1    D(3,1,2,6)             58.0405         estimate D2E/DX2                !
 ! D2    D(4,1,2,6)            -58.0418         estimate D2E/DX2                !
 ! D3    D(5,1,2,6)            179.9994         estimate D2E/DX2                !
 ! D4    D(2,1,3,6)            -58.0405         estimate D2E/DX2                !
 ! D5    D(4,1,3,6)             58.0419         estimate D2E/DX2                !
 ! D6    D(5,1,3,6)           -179.9994         estimate D2E/DX2                !
 ! D7    D(2,1,4,6)             58.0407         estimate D2E/DX2                !
 ! D8    D(3,1,4,6)            -58.0409         estimate D2E/DX2                !
 ! D9    D(5,1,4,6)            180.0            estimate D2E/DX2                !
 ! D10   D(1,2,6,3)            -32.8806         estimate D2E/DX2                !
 ! D11   D(1,2,6,4)             32.8802         estimate D2E/DX2                !
 ! D12   D(1,3,6,2)             32.8807         estimate D2E/DX2                !
 ! D13   D(1,3,6,4)            -32.8803         estimate D2E/DX2                !
 ! D14   D(1,4,6,2)            -32.8807         estimate D2E/DX2                !
 ! D15   D(1,4,6,3)             32.8807         estimate D2E/DX2                !
 --------------------------------------------------------------------------------
 Trust Radius=3.00D-01 FncErr=1.00D-07 GrdErr=1.00D-07 EigMax=2.50D+02 EigMin=1.00D-04
 Number of steps in this run=     44 maximum allowed number of steps=    100.
 GradGradGradGradGradGradGradGradGradGradGradGradGradGradGradGradGradGrad

 Leave Link  103 at Mon Nov  6 15:52:07 2017, MaxMem=   134217728 cpu:               0.0 elap:               0.0
 (Enter /n/sw/g16_nehalem/g16/l202.exe)
                          Input orientation:                          
 ---------------------------------------------------------------------
 Center     Atomic      Atomic             Coordinates (Angstroms)
 Number     Number       Type             X           Y           Z
 ---------------------------------------------------------------------
      1          6           0        0.383877    0.000009    0.000000
      2          1           0       -0.039763   -0.600227   -0.918425
      3          1           0       -0.039762   -0.495258    0.979029
      4          1           0       -0.039733    1.095506   -0.060603
      5         17           0        2.090119   -0.000003    0.000000
      6         17           0       -2.218119   -0.000002    0.000000
 ---------------------------------------------------------------------
                    Distance matrix (angstroms):
                    1          2          3          4          5
     1  C    0.000000
     2  H    1.176120   0.000000
     3  H    1.176120   1.900355   0.000000
     4  H    1.176109   1.900360   1.900359   0.000000
     5  Cl   1.706242   2.395865   2.395865   2.395847   0.000000
     6  Cl   2.601996   2.439059   2.439060   2.439093   4.308238
                    6
     6  Cl   0.000000
 This structure is nearly, but not quite of a higher symmetry.
 Consider Symm=Loose if the higher symmetry is desired.
 Stoichiometry    CH3Cl2(1-)
 Framework group  C1[X(CH3Cl2)]
 Deg. of freedom    12
 Full point group                 C1      NOp   1
 Largest Abelian subgroup         C1      NOp   1
 Largest concise Abelian subgroup C1      NOp   1
                         Standard orientation:                         
 ---------------------------------------------------------------------
 Center     Atomic      Atomic             Coordinates (Angstroms)
 Number     Number       Type             X           Y           Z
 ---------------------------------------------------------------------
      1          6           0        0.001022   -0.019762   -0.383180
      2          1           0       -0.886334   -0.644020    0.070867
      3          1           0        1.003169   -0.441295    0.065449
      4          1           0       -0.117155    1.091512   -0.016660
      5         17           0        0.005572   -0.107696   -2.087149
      6         17           0       -0.005914    0.114306    2.215350
 ---------------------------------------------------------------------
 Rotational constants (GHZ):         138.8548693           1.5388833           1.5388832
 Leave Link  202 at Mon Nov  6 15:52:07 2017, MaxMem=   134217728 cpu:               0.0 elap:               0.0
 (Enter /n/sw/g16_nehalem/g16/l301.exe)
 Standard basis: VSTO-6G (5D, 7F)
 Ernie: Thresh=  0.10000D-02 Tol=  0.10000D-05 Strict=F.
  NNHCO=     0 NNPyr=     0 NCTC=     0               EPep=         0.000000000
    EC=        31.533062050  ECS=         0.461780189   EG=         0.116852420
   EHC=         0.000000000  EAt=       -33.052413022  AtH=         0.613817027
 EPDDG=         0.000000000  ECC=        32.111694659 EAtT=        33.666230050
 There are    15 symmetry adapted cartesian basis functions of A   symmetry.
 There are    15 symmetry adapted basis functions of A   symmetry.
    15 basis functions,    90 primitive gaussians,    15 cartesian basis functions
    11 alpha electrons       11 beta electrons
       nuclear repulsion energy        65.7779247084 Hartrees.
 IExCor=    0 DFT=F Ex=HF Corr=None ExCW=0 ScaHFX=  1.000000
 ScaDFX=  1.000000  1.000000  1.000000  1.000000 ScalE2=  1.000000  1.000000
 IRadAn=      5 IRanWt=     -1 IRanGd=            0 ICorTp=0 IEmpDi=  4
 Integral buffers will be    131072 words long.
 Regular integral format.
 Two-electron integral symmetry is turned off.
 Leave Link  301 at Mon Nov  6 15:52:07 2017, MaxMem=   134217728 cpu:               0.1 elap:               0.2
 (Enter /n/sw/g16_nehalem/g16/l302.exe)
 Do NDO integrals.
 NPDir=0 NMtPBC=     1 NCelOv=     1 NCel=       1 NClECP=     1 NCelD=      1
         NCelK=      1 NCelE2=     1 NClLst=     1 CellRange=     0.0.
 One-electron integrals computed using PRISM.
 NBasis=    15 RedAO= F EigKep=  0.00D+00  NBF=    15
 NBsUse=    15 1.00D-04 EigRej=  0.00D+00 NBFU=    15
 Leave Link  302 at Mon Nov  6 15:52:07 2017, MaxMem=   134217728 cpu:               0.2 elap:               0.2
 (Enter /n/sw/g16_nehalem/g16/l303.exe)
 DipDrv:  MaxL=1.
 Leave Link  303 at Mon Nov  6 15:52:08 2017, MaxMem=   134217728 cpu:               0.1 elap:               0.1
 (Enter /n/sw/g16_nehalem/g16/l401.exe)
 Simple Huckel Guess.
 JPrj=0 DoOrth=F DoCkMO=F.
 Leave Link  401 at Mon Nov  6 15:52:08 2017, MaxMem=   134217728 cpu:               0.1 elap:               0.2
 (Enter /n/sw/g16_nehalem/g16/l502.exe)
 Keep J ints in memory in canonical form, NReq=859725.
 FoFCou: FMM=F IPFlag=           0 FMFlag=           0 FMFlg1=           0
         NFxFlg=           0 DoJE=F BraDBF=F KetDBF=F FulRan=T
         wScrn=  0.000000 ICntrl=       600 IOpCl=  2 I1Cent=           0 NGrid=           0
         NMat0=    1 NMatS0=     33 NMatT0=    0 NMatD0=    1 NMtDS0=    0 NMtDT0=    0
 Symmetry not used in FoFCou.
 Two-electron integral symmetry not used.
 Closed shell SCF:
 Using DIIS extrapolation, IDIIS=  1040.
 Overlap will be assumed to be unity.
 NGot=   134217728 LenX=   134156826 LenY=   134155944
 Requested convergence on RMS density matrix=1.00D-08 within 128 cycles.
 Requested convergence on MAX density matrix=1.00D-06.
 Requested convergence on             energy=1.00D-06.
 No special actions if energy rises.

 Cycle   1  Pass 1  IDiag  1:
 E= 0.157624354914248    
 DIIS: error= 1.13D-01 at cycle   1 NSaved=   1.
 NSaved= 1 IEnMin= 1 EnMin= 0.157624354914248     IErMin= 1 ErrMin= 1.13D-01
 ErrMax= 1.13D-01  0.00D+00 EMaxC= 1.00D-01 BMatC= 1.13D-01 BMatP= 1.13D-01
 IDIUse=3 WtCom= 0.00D+00 WtEn= 1.00D+00
 Coeff-Com:  0.100D+01
 Coeff-En:   0.100D+01
 Coeff:      0.100D+01
 GapD=    2.000 DampG=2.000 DampE=0.250 DampFc=0.5000 IDamp=-1.
 Damping current iteration by 5.00D-01
 RMSDP=2.73D-02 MaxDP=1.42D-01              OVMax= 0.00D+00

 Cycle   2  Pass 1  IDiag  1:
 E= 0.504856131110358E-01 Delta-E=       -0.107138741803 Rises=F Damp=T
 DIIS: error= 6.80D-02 at cycle   2 NSaved=   2.
 NSaved= 2 IEnMin= 2 EnMin= 0.504856131110358E-01 IErMin= 2 ErrMin= 6.80D-02
 ErrMax= 6.80D-02  0.00D+00 EMaxC= 1.00D-01 BMatC= 4.20D-02 BMatP= 1.13D-01
 IDIUse=3 WtCom= 3.20D-01 WtEn= 6.80D-01
 Coeff-Com: -0.156D+01 0.256D+01
 Coeff-En:   0.000D+00 0.100D+01
 Coeff:     -0.501D+00 0.150D+01
 RMSDP=1.79D-02 MaxDP=9.59D-02 DE=-1.07D-01 OVMax= 0.00D+00

 Cycle   3  Pass 1  IDiag  1:
 E=-0.880470277860752E-01 Delta-E=       -0.138532640897 Rises=F Damp=F
 DIIS: error= 8.75D-03 at cycle   3 NSaved=   3.
 NSaved= 3 IEnMin= 3 EnMin=-0.880470277860752E-01 IErMin= 3 ErrMin= 8.75D-03
 ErrMax= 8.75D-03  0.00D+00 EMaxC= 1.00D-01 BMatC= 8.64D-04 BMatP= 4.20D-02
 IDIUse=3 WtCom= 9.13D-01 WtEn= 8.75D-02
 Coeff-Com:  0.621D+00-0.124D+01 0.162D+01
 Coeff-En:   0.000D+00 0.000D+00 0.100D+01
 Coeff:      0.566D+00-0.113D+01 0.157D+01
 RMSDP=2.96D-03 MaxDP=1.82D-02 DE=-1.39D-01 OVMax= 0.00D+00

 Cycle   4  Pass 1  IDiag  3:
 E=-0.898738244144965E-01 Delta-E=       -0.001826796628 Rises=F Damp=F
 DIIS: error= 3.06D-04 at cycle   4 NSaved=   4.
 NSaved= 4 IEnMin= 4 EnMin=-0.898738244144965E-01 IErMin= 4 ErrMin= 3.06D-04
 ErrMax= 3.06D-04  0.00D+00 EMaxC= 1.00D-01 BMatC= 3.31D-06 BMatP= 8.64D-04
 IDIUse=3 WtCom= 9.97D-01 WtEn= 3.06D-03
 Coeff-Com: -0.127D+00 0.266D+00-0.457D+00 0.132D+01
 Coeff-En:   0.000D+00 0.000D+00 0.000D+00 0.100D+01
 Coeff:     -0.126D+00 0.266D+00-0.455D+00 0.132D+01
 Gap=     0.353 Goal=   None    Shift=    0.000
 RMSDP=3.92D-04 MaxDP=1.40D-03 DE=-1.83D-03 OVMax= 3.05D-03

 Cycle   5  Pass 1  IDiag  3:
 E=-0.898911674482576E-01 Delta-E=       -0.000017343034 Rises=F Damp=F
 DIIS: error= 6.96D-05 at cycle   5 NSaved=   5.
 NSaved= 5 IEnMin= 5 EnMin=-0.898911674482576E-01 IErMin= 5 ErrMin= 6.96D-05
 ErrMax= 6.96D-05  0.00D+00 EMaxC= 1.00D-01 BMatC= 1.49D-07 BMatP= 3.31D-06
 IDIUse=1 WtCom= 1.00D+00 WtEn= 0.00D+00
 Coeff-Com:  0.866D-02-0.188D-01 0.404D-01-0.353D+00 0.132D+01
 Coeff:      0.866D-02-0.188D-01 0.404D-01-0.353D+00 0.132D+01
 Gap=     0.353 Goal=   None    Shift=    0.000
 RMSDP=1.17D-04 MaxDP=4.92D-04 DE=-1.73D-05 OVMax= 1.05D-03

 Cycle   6  Pass 1  IDiag  3:
 E=-0.898922209020867E-01 Delta-E=       -0.000001053454 Rises=F Damp=F
 DIIS: error= 1.39D-05 at cycle   6 NSaved=   6.
 NSaved= 6 IEnMin= 6 EnMin=-0.898922209020867E-01 IErMin= 6 ErrMin= 1.39D-05
 ErrMax= 1.39D-05  0.00D+00 EMaxC= 1.00D-01 BMatC= 4.01D-09 BMatP= 1.49D-07
 IDIUse=1 WtCom= 1.00D+00 WtEn= 0.00D+00
 Coeff-Com: -0.111D-02 0.268D-02-0.884D-02 0.144D+00-0.671D+00 0.153D+01
 Coeff:     -0.111D-02 0.268D-02-0.884D-02 0.144D+00-0.671D+00 0.153D+01
 Gap=     0.353 Goal=   None    Shift=    0.000
 RMSDP=2.10D-05 MaxDP=1.05D-04 DE=-1.05D-06 OVMax= 2.06D-04

 Cycle   7  Pass 1  IDiag  3:
 E=-0.898922492957723E-01 Delta-E=       -0.000000028394 Rises=F Damp=F
 DIIS: error= 9.23D-07 at cycle   7 NSaved=   7.
 NSaved= 7 IEnMin= 7 EnMin=-0.898922492957723E-01 IErMin= 7 ErrMin= 9.23D-07
 ErrMax= 9.23D-07  0.00D+00 EMaxC= 1.00D-01 BMatC= 4.56D-11 BMatP= 4.01D-09
 IDIUse=1 WtCom= 1.00D+00 WtEn= 0.00D+00
 Coeff-Com: -0.308D-03 0.568D-03-0.332D-04-0.280D-01 0.156D+00-0.426D+00
 Coeff-Com:  0.130D+01
 Coeff:     -0.308D-03 0.568D-03-0.332D-04-0.280D-01 0.156D+00-0.426D+00
 Coeff:      0.130D+01
 Gap=     0.353 Goal=   None    Shift=    0.000
 RMSDP=1.67D-06 MaxDP=6.80D-06 DE=-2.84D-08 OVMax= 9.10D-06

 Cycle   8  Pass 1  IDiag  3:
 E=-0.898922495485266E-01 Delta-E=       -0.000000000253 Rises=F Damp=F
 DIIS: error= 2.10D-07 at cycle   8 NSaved=   8.
 NSaved= 8 IEnMin= 8 EnMin=-0.898922495485266E-01 IErMin= 8 ErrMin= 2.10D-07
 ErrMax= 2.10D-07  0.00D+00 EMaxC= 1.00D-01 BMatC= 1.31D-12 BMatP= 4.56D-11
 IDIUse=1 WtCom= 1.00D+00 WtEn= 0.00D+00
 Coeff-Com:  0.784D-04-0.148D-03-0.958D-05 0.106D-01-0.602D-01 0.169D+00
 Coeff-Com: -0.604D+00 0.148D+01
 Coeff:      0.784D-04-0.148D-03-0.958D-05 0.106D-01-0.602D-01 0.169D+00
 Coeff:     -0.604D+00 0.148D+01
 Gap=     0.353 Goal=   None    Shift=    0.000
 RMSDP=3.22D-07 MaxDP=1.31D-06 DE=-2.53D-10 OVMax= 1.43D-06

 Cycle   9  Pass 1  IDiag  3:
 E=-0.898922495562431E-01 Delta-E=       -0.000000000008 Rises=F Damp=F
 DIIS: error= 2.82D-08 at cycle   9 NSaved=   9.
 NSaved= 9 IEnMin= 9 EnMin=-0.898922495562431E-01 IErMin= 9 ErrMin= 2.82D-08
 ErrMax= 2.82D-08  0.00D+00 EMaxC= 1.00D-01 BMatC= 1.72D-14 BMatP= 1.31D-12
 IDIUse=1 WtCom= 1.00D+00 WtEn= 0.00D+00
 Coeff-Com:  0.339D-05-0.704D-05 0.467D-04-0.266D-02 0.148D-01-0.417D-01
 Coeff-Com:  0.153D+00-0.424D+00 0.130D+01
 Coeff:      0.339D-05-0.704D-05 0.467D-04-0.266D-02 0.148D-01-0.417D-01
 Coeff:      0.153D+00-0.424D+00 0.130D+01
 Gap=     0.353 Goal=   None    Shift=    0.000
 RMSDP=2.50D-08 MaxDP=8.02D-08 DE=-7.72D-12 OVMax= 1.15D-07

 Cycle  10  Pass 1  IDiag  3:
 E=-0.898922495562289E-01 Delta-E=        0.000000000000 Rises=F Damp=F
 DIIS: error= 4.57D-09 at cycle  10 NSaved=  10.
 NSaved=10 IEnMin= 9 EnMin=-0.898922495562431E-01 IErMin=10 ErrMin= 4.57D-09
 ErrMax= 4.57D-09  0.00D+00 EMaxC= 1.00D-01 BMatC= 4.03D-16 BMatP= 1.72D-14
 IDIUse=1 WtCom= 1.00D+00 WtEn= 0.00D+00
 Coeff-Com:  0.464D-06-0.735D-06-0.240D-04 0.177D-02-0.997D-02 0.282D-01
 Coeff-Com: -0.104D+00 0.285D+00-0.892D+00 0.169D+01
 Coeff:      0.464D-06-0.735D-06-0.240D-04 0.177D-02-0.997D-02 0.282D-01
 Coeff:     -0.104D+00 0.285D+00-0.892D+00 0.169D+01
 Gap=     0.353 Goal=   None    Shift=    0.000
 RMSDP=6.63D-09 MaxDP=3.06D-08 DE= 1.42D-14 OVMax= 4.49D-08

 Cycle  11  Pass 2  IDiag  1:
 SCF Done:  E(RAM1) = -0.898922495562E-01 A.U. after   11 cycles
            NFock= 10  Conv=0.66D-08     -V/T= 0.9984
 KE=-5.718319311461D+01 PE=-6.440247779269D+01 EE= 5.571785394936D+01
 Leave Link  502 at Mon Nov  6 15:52:08 2017, MaxMem=   134217728 cpu:               0.1 elap:               0.2
 (Enter /n/sw/g16_nehalem/g16/l601.exe)
 Copying SCF densities to generalized density rwf, IOpCl= 0 IROHF=0.

 **********************************************************************

            Population analysis using the SCF density.

 **********************************************************************

 Orbital symmetries:
       Occupied  (A) (A) (A) (A) (A) (A) (A) (A) (A) (A) (A)
       Virtual   (A) (A) (A) (A)
 The electronic state is 1-A.
 Alpha  occ. eigenvalues --   -1.21748  -0.95207  -0.85407  -0.39178  -0.37847
 Alpha  occ. eigenvalues --   -0.37847  -0.25517  -0.25517  -0.13398  -0.13398
 Alpha  occ. eigenvalues --   -0.12434
 Alpha virt. eigenvalues --    0.22894   0.31642   0.31642   0.33898
          Condensed to atoms (all electrons):
               1          2          3          4          5          6
     1  C    4.170447   0.000000   0.000000   0.000000   0.000000   0.000000
     2  H    0.000000   0.876447   0.000000   0.000000   0.000000   0.000000
     3  H    0.000000   0.000000   0.876447   0.000000   0.000000   0.000000
     4  H    0.000000   0.000000   0.000000   0.876452   0.000000   0.000000
     5  Cl   0.000000   0.000000   0.000000   0.000000   7.242562   0.000000
     6  Cl   0.000000   0.000000   0.000000   0.000000   0.000000   7.957645
 Mulliken charges:
               1
     1  C   -0.170447
     2  H    0.123553
     3  H    0.123553
     4  H    0.123548
     5  Cl  -0.242562
     6  Cl  -0.957645
 Sum of Mulliken charges =  -1.00000
 Mulliken charges with hydrogens summed into heavy atoms:
               1
     1  C    0.200207
     5  Cl  -0.242562
     6  Cl  -0.957645
 Charge=             -1.0000 electrons
 Dipole moment (field-independent basis, Debye):
    X=              0.0195    Y=             -0.3776    Z=             -7.3188  Tot=              7.3285
 N-N= 6.577792470839D+01 E-N=-6.440247777451D+01  KE=-5.718319311461D+01
 Leave Link  601 at Mon Nov  6 15:52:08 2017, MaxMem=   134217728 cpu:               0.1 elap:               0.1
 (Enter /n/sw/g16_nehalem/g16/l701.exe)
 ... and contract with generalized density number  0.
 Compute integral first derivatives.
 Leave Link  701 at Mon Nov  6 15:52:09 2017, MaxMem=   134217728 cpu:               0.1 elap:               0.2
 (Enter /n/sw/g16_nehalem/g16/l702.exe)
 L702 exits ... SP integral derivatives will be done elsewhere.
 Leave Link  702 at Mon Nov  6 15:52:09 2017, MaxMem=   134217728 cpu:               0.1 elap:               0.1
 (Enter /n/sw/g16_nehalem/g16/l703.exe)
 Integral derivatives from FoFJK, PRISM(SPDF).
 Compute integral first derivatives, UseDBF=F ICtDFT=           0.
 Calling FoFJK, ICntrl=      2127 FMM=F ISym2X=0 I1Cent= 0 IOpClX= 0 NMat=1 NMatS=1 NMatT=0.
 FoFJK:  IHMeth= 8 ICntrl=    2127 DoSepK=F KAlg= 0 I1Cent=           0 FoldK=F
 IRaf=         0 NMat=       1 IRICut=       1 DoRegI=T DoRafI=F ISym2E= 0 IDoP0=3 IntGTp=3.
 FoFCou: FMM=F IPFlag=           0 FMFlag=      100000 FMFlg1=         800
         NFxFlg=           0 DoJE=F BraDBF=F KetDBF=F FulRan=T
         wScrn=  0.000000 ICntrl=      2127 IOpCl=  0 I1Cent=           0 NGrid=           0
         NMat0=    1 NMatS0=      1 NMatT0=    0 NMatD0=    1 NMtDS0=    0 NMtDT0=    0
 Symmetry not used in FoFCou.
 Leave Link  703 at Mon Nov  6 15:52:09 2017, MaxMem=   134217728 cpu:               0.1 elap:               0.1
 (Enter /n/sw/g16_nehalem/g16/l716.exe)
 Dipole        = 7.68700961D-03-1.48572935D-01-2.87942126D+00
 ***** Axes restored to original set *****
 -------------------------------------------------------------------
 Center     Atomic                   Forces (Hartrees/Bohr)
 Number     Number              X              Y              Z
 -------------------------------------------------------------------
      1        6          -0.065920989   -0.000003829    0.000000112
      2        1           0.016997324    0.017876198    0.027351475
      3        1           0.016997219    0.014749965   -0.029156181
      4        1           0.016994070   -0.032621571    0.001804573
      5       17           0.031826226   -0.000000670    0.000000020
      6       17          -0.016893850   -0.000000093    0.000000002
 -------------------------------------------------------------------
 Cartesian Forces:  Max     0.065920989 RMS     0.023229806
 Leave Link  716 at Mon Nov  6 15:52:09 2017, MaxMem=   134217728 cpu:               0.1 elap:               0.1
 (Enter /n/sw/g16_nehalem/g16/l103.exe)

 GradGradGradGradGradGradGradGradGradGradGradGradGradGradGradGradGradGrad
 Berny optimization.
 FormGI is forming the generalized inverse of G from B-inverse, IUseBI=4.
 Internal  Forces:  Max     0.031826226 RMS     0.011547772
 Search for a local minimum.
 Step number   1 out of a maximum of   44
 All quantities printed in internal units (Hartrees-Bohrs-Radians)
 RMS Force = .11548D-01 SwitMx=.10000D-02 MixMth= 1
 Mixed Optimization -- RFO/linear search
 Second derivative matrix not updated -- first step.
 ITU=  0
     Eigenvalues ---    0.03218   0.03482   0.03482   0.06880   0.06880
     Eigenvalues ---    0.09483   0.09483   0.11200   0.23500   0.23501
     Eigenvalues ---    0.25080   0.35149
 RFO step:  Lambda=-1.69575574D-02 EMin= 3.21768760D-02
 Linear search not attempted -- first point.
 Iteration  1 RMS(Cart)=  0.03737761 RMS(Int)=  0.00095022
 Iteration  2 RMS(Cart)=  0.00058080 RMS(Int)=  0.00037633
 Iteration  3 RMS(Cart)=  0.00000017 RMS(Int)=  0.00037633
 ITry= 1 IFail=0 DXMaxC= 1.12D-01 DCOld= 1.00D+10 DXMaxT= 3.00D-01 DXLimC= 3.00D+00 Rises=F
 Variable       Old X    -DE/DX   Delta X   Delta X   Delta X     New X
                                 (Linear)    (Quad)   (Total)
    R1        2.22254  -0.03113   0.00000  -0.11422  -0.11465   2.10789
    R2        2.22254  -0.03113   0.00000  -0.11422  -0.11465   2.10789
    R3        2.22252  -0.03113   0.00000  -0.11420  -0.11463   2.10789
    R4        3.22433   0.03183   0.00000   0.08638   0.08638   3.31071
    R5        4.60915   0.00337   0.00000   0.08609   0.08628   4.69543
    R6        4.60916   0.00337   0.00000   0.08609   0.08628   4.69544
    R7        4.60922   0.00337   0.00000   0.08608   0.08627   4.69549
    A1        1.88113   0.00137   0.00000   0.01258   0.01225   1.89338
    A2        1.88115   0.00137   0.00000   0.01258   0.01224   1.89339
    A3        1.93928  -0.00129   0.00000  -0.01189  -0.01170   1.92758
    A4        1.88115   0.00137   0.00000   0.01258   0.01224   1.89339
    A5        1.93928  -0.00129   0.00000  -0.01188  -0.01170   1.92758
    A6        1.93926  -0.00129   0.00000  -0.01188  -0.01169   1.92758
    A7        1.47270   0.00588   0.00000   0.02110   0.02072   1.49343
    A8        1.47270   0.00588   0.00000   0.02110   0.02072   1.49342
    A9        1.47268   0.00588   0.00000   0.02110   0.02072   1.49340
   A10        0.80032  -0.01205   0.00000  -0.05539  -0.05457   0.74575
   A11        0.80032  -0.01205   0.00000  -0.05539  -0.05457   0.74575
   A12        0.80032  -0.01205   0.00000  -0.05539  -0.05457   0.74575
    D1        1.01300   0.00150   0.00000   0.01382   0.01374   1.02674
    D2       -1.01302  -0.00150   0.00000  -0.01382  -0.01375  -1.02677
    D3        3.14158   0.00000   0.00000   0.00000   0.00000   3.14158
    D4       -1.01300  -0.00150   0.00000  -0.01382  -0.01374  -1.02674
    D5        1.01302   0.00150   0.00000   0.01382   0.01375   1.02677
    D6       -3.14158   0.00000   0.00000   0.00000   0.00000  -3.14158
    D7        1.01300   0.00150   0.00000   0.01382   0.01375   1.02675
    D8       -1.01300  -0.00150   0.00000  -0.01382  -0.01375  -1.02675
    D9        3.14159   0.00000   0.00000   0.00000   0.00000   3.14159
   D10       -0.57388   0.00165   0.00000   0.00758   0.00713  -0.56675
   D11        0.57387  -0.00165   0.00000  -0.00757  -0.00712   0.56675
   D12        0.57388  -0.00165   0.00000  -0.00758  -0.00713   0.56675
   D13       -0.57387   0.00165   0.00000   0.00757   0.00712  -0.56675
   D14       -0.57388   0.00165   0.00000   0.00757   0.00712  -0.56675
   D15        0.57388  -0.00165   0.00000  -0.00757  -0.00712   0.56675
         Item               Value     Threshold  Converged?
 Maximum Force            0.031826     0.000450     NO 
 RMS     Force            0.011548     0.000300     NO 
 Maximum Displacement     0.112371     0.001800     NO 
 RMS     Displacement     0.037712     0.001200     NO 
 Predicted change in Energy=-9.160743D-03
 Lowest energy point so far.  Saving SCF results.
 GradGradGradGradGradGradGradGradGradGradGradGradGradGradGradGradGradGrad

 Leave Link  103 at Mon Nov  6 15:52:09 2017, MaxMem=   134217728 cpu:               0.0 elap:               0.1
 (Enter /n/sw/g16_nehalem/g16/l202.exe)
                          Input orientation:                          
 ---------------------------------------------------------------------
 Center     Atomic      Atomic             Coordinates (Angstroms)
 Number     Number       Type             X           Y           Z
 ---------------------------------------------------------------------
      1          6           0        0.366200    0.000008    0.000000
      2          1           0       -0.023390   -0.571793   -0.874922
      3          1           0       -0.023390   -0.471797    0.932655
      4          1           0       -0.023368    1.043620   -0.057733
      5         17           0        2.118151   -0.000009    0.000000
      6         17           0       -2.277583   -0.000005    0.000000
 ---------------------------------------------------------------------
                    Distance matrix (angstroms):
                    1          2          3          4          5
     1  C    0.000000
     2  H    1.115448   0.000000
     3  H    1.115448   1.810340   0.000000
     4  H    1.115447   1.810347   1.810347   0.000000
     5  Cl   1.751951   2.382987   2.382987   2.382982   0.000000
     6  Cl   2.643783   2.484716   2.484718   2.484748   4.395735
                    6
     6  Cl   0.000000
 Stoichiometry    CH3Cl2(1-)
 Framework group  C1[X(CH3Cl2)]
 Deg. of freedom    12
 Full point group                 C1      NOp   1
 RotChk:  IX=0 Diff= 2.00D+00
 Largest Abelian subgroup         C1      NOp   1
 Largest concise Abelian subgroup C1      NOp   1
                         Standard orientation:                         
 ---------------------------------------------------------------------
 Center     Atomic      Atomic             Coordinates (Angstroms)
 Number     Number       Type             X           Y           Z
 ---------------------------------------------------------------------
      1          6           0        0.379765    0.000012    0.000000
      2          1           0       -0.009825   -0.536537   -0.896972
      3          1           0       -0.009824   -0.508515    0.913152
      4          1           0       -0.009804    1.045094   -0.016178
      5         17           0        2.131716   -0.000004    0.000000
      6         17           0       -2.264018   -0.000003    0.000000
 ---------------------------------------------------------------------
 Rotational constants (GHZ):         153.0063526           1.4797461           1.4797461
 Leave Link  202 at Mon Nov  6 15:52:09 2017, MaxMem=   134217728 cpu:               0.0 elap:               0.0
 (Enter /n/sw/g16_nehalem/g16/l301.exe)
 Standard basis: VSTO-6G (5D, 7F)
 Ernie: Thresh=  0.10000D-02 Tol=  0.10000D-05 Strict=F.
  NNHCO=     0 NNPyr=     0 NCTC=     0               EPep=         0.000000000
    EC=        31.293619562  ECS=         0.508884269   EG=         0.112782683
   EHC=         0.000000000  EAt=       -33.052413022  AtH=         0.613817027
 EPDDG=         0.000000000  ECC=        31.915286514 EAtT=        33.666230050
 There are    15 symmetry adapted cartesian basis functions of A   symmetry.
 There are    15 symmetry adapted basis functions of A   symmetry.
    15 basis functions,    90 primitive gaussians,    15 cartesian basis functions
    11 alpha electrons       11 beta electrons
       nuclear repulsion energy        65.5815165636 Hartrees.
 IExCor=    0 DFT=F Ex=HF Corr=None ExCW=0 ScaHFX=  1.000000
 ScaDFX=  1.000000  1.000000  1.000000  1.000000 ScalE2=  1.000000  1.000000
 IRadAn=      5 IRanWt=     -1 IRanGd=            0 ICorTp=0 IEmpDi=  4
 Integral buffers will be    131072 words long.
 Regular integral format.
 Two-electron integral symmetry is turned off.
 Leave Link  301 at Mon Nov  6 15:52:09 2017, MaxMem=   134217728 cpu:               0.1 elap:               0.1
 (Enter /n/sw/g16_nehalem/g16/l302.exe)
 Do NDO integrals.
 NPDir=0 NMtPBC=     1 NCelOv=     1 NCel=       1 NClECP=     1 NCelD=      1
         NCelK=      1 NCelE2=     1 NClLst=     1 CellRange=     0.0.
 One-electron integrals computed using PRISM.
 NBasis=    15 RedAO= F EigKep=  0.00D+00  NBF=    15
 NBsUse=    15 1.00D-04 EigRej=  0.00D+00 NBFU=    15
 Leave Link  302 at Mon Nov  6 15:52:10 2017, MaxMem=   134217728 cpu:               0.2 elap:               0.2
 (Enter /n/sw/g16_nehalem/g16/l303.exe)
 DipDrv:  MaxL=1.
 Leave Link  303 at Mon Nov  6 15:52:10 2017, MaxMem=   134217728 cpu:               0.1 elap:               0.1
 (Enter /n/sw/g16_nehalem/g16/l401.exe)
 Initial guess from the checkpoint file:  "/scratch/dhuang9_MeCl_postcomplex/Gau-53864.chk"
 B after Tr=     0.000000    0.000000    0.000000
         Rot=    0.706241   -0.050568    0.706023    0.014071 Ang= -90.14 deg.
 Guess basis will be translated and rotated to current coordinates.
 JPrj=0 DoOrth=T DoCkMO=T.
 Leave Link  401 at Mon Nov  6 15:52:10 2017, MaxMem=   134217728 cpu:               0.2 elap:               0.2
 (Enter /n/sw/g16_nehalem/g16/l502.exe)
 Keep J ints in memory in canonical form, NReq=859725.
 FoFCou: FMM=F IPFlag=           0 FMFlag=           0 FMFlg1=           0
         NFxFlg=           0 DoJE=F BraDBF=F KetDBF=F FulRan=T
         wScrn=  0.000000 ICntrl=       600 IOpCl=  2 I1Cent=           0 NGrid=           0
         NMat0=    1 NMatS0=     33 NMatT0=    0 NMatD0=    1 NMtDS0=    0 NMtDT0=    0
 Symmetry not used in FoFCou.
 Two-electron integral symmetry not used.
 Closed shell SCF:
 Using DIIS extrapolation, IDIIS=  1040.
 Overlap will be assumed to be unity.
 NGot=   134217728 LenX=   134156826 LenY=   134155944
 Requested convergence on RMS density matrix=1.00D-08 within 128 cycles.
 Requested convergence on MAX density matrix=1.00D-06.
 Requested convergence on             energy=1.00D-06.
 No special actions if energy rises.

 Cycle   1  Pass 1  IDiag  1:
 E=-0.991542444260887E-01
 DIIS: error= 3.91D-03 at cycle   1 NSaved=   1.
 NSaved= 1 IEnMin= 1 EnMin=-0.991542444260887E-01 IErMin= 1 ErrMin= 3.91D-03
 ErrMax= 3.91D-03  0.00D+00 EMaxC= 1.00D-01 BMatC= 4.17D-04 BMatP= 4.17D-04
 IDIUse=3 WtCom= 9.61D-01 WtEn= 3.91D-02
 Coeff-Com:  0.100D+01
 Coeff-En:   0.100D+01
 Coeff:      0.100D+01
 GapD=    2.000 DampG=2.000 DampE=1.000 DampFc=2.0000 IDamp=-1.
 RMSDP=1.88D-03 MaxDP=9.45D-03              OVMax= 0.00D+00

 Cycle   2  Pass 1  IDiag  3:
 E=-0.100107993122279     Delta-E=       -0.000953748696 Rises=F Damp=F
 DIIS: error= 9.50D-04 at cycle   2 NSaved=   2.
 NSaved= 2 IEnMin= 2 EnMin=-0.100107993122279     IErMin= 2 ErrMin= 9.50D-04
 ErrMax= 9.50D-04  0.00D+00 EMaxC= 1.00D-01 BMatC= 2.31D-05 BMatP= 4.17D-04
 IDIUse=3 WtCom= 9.90D-01 WtEn= 9.50D-03
 Coeff-Com: -0.295D+00 0.130D+01
 Coeff-En:   0.000D+00 0.100D+01
 Coeff:     -0.292D+00 0.129D+01
 Gap=     0.345 Goal=   None    Shift=    0.000
 RMSDP=6.71D-04 MaxDP=2.64D-03 DE=-9.54D-04 OVMax= 3.40D-03

 Cycle   3  Pass 1  IDiag  3:
 E=-0.100175376703263     Delta-E=       -0.000067383581 Rises=F Damp=F
 DIIS: error= 6.08D-05 at cycle   3 NSaved=   3.
 NSaved= 3 IEnMin= 3 EnMin=-0.100175376703263     IErMin= 3 ErrMin= 6.08D-05
 ErrMax= 6.08D-05  0.00D+00 EMaxC= 1.00D-01 BMatC= 2.16D-07 BMatP= 2.31D-05
 IDIUse=1 WtCom= 1.00D+00 WtEn= 0.00D+00
 Coeff-Com:  0.162D+00-0.733D+00 0.157D+01
 Coeff:      0.162D+00-0.733D+00 0.157D+01
 Gap=     0.345 Goal=   None    Shift=    0.000
 RMSDP=1.27D-04 MaxDP=4.73D-04 DE=-6.74D-05 OVMax= 7.80D-04

 Cycle   4  Pass 1  IDiag  3:
 E=-0.100176645331132     Delta-E=       -0.000001268628 Rises=F Damp=F
 DIIS: error= 1.13D-05 at cycle   4 NSaved=   4.
 NSaved= 4 IEnMin= 4 EnMin=-0.100176645331132     IErMin= 4 ErrMin= 1.13D-05
 ErrMax= 1.13D-05  0.00D+00 EMaxC= 1.00D-01 BMatC= 2.21D-09 BMatP= 2.16D-07
 IDIUse=1 WtCom= 1.00D+00 WtEn= 0.00D+00
 Coeff-Com: -0.696D-01 0.316D+00-0.697D+00 0.145D+01
 Coeff:     -0.696D-01 0.316D+00-0.697D+00 0.145D+01
 Gap=     0.345 Goal=   None    Shift=    0.000
 RMSDP=1.27D-05 MaxDP=7.48D-05 DE=-1.27D-06 OVMax= 9.31D-05

 Cycle   5  Pass 1  IDiag  3:
 E=-0.100176659185934     Delta-E=       -0.000000013855 Rises=F Damp=F
 DIIS: error= 1.69D-06 at cycle   5 NSaved=   5.
 NSaved= 5 IEnMin= 5 EnMin=-0.100176659185934     IErMin= 5 ErrMin= 1.69D-06
 ErrMax= 1.69D-06  0.00D+00 EMaxC= 1.00D-01 BMatC= 6.39D-11 BMatP= 2.21D-09
 IDIUse=1 WtCom= 1.00D+00 WtEn= 0.00D+00
 Coeff-Com:  0.166D-01-0.762D-01 0.166D+00-0.444D+00 0.134D+01
 Coeff:      0.166D-01-0.762D-01 0.166D+00-0.444D+00 0.134D+01
 Gap=     0.345 Goal=   None    Shift=    0.000
 RMSDP=2.29D-06 MaxDP=1.29D-05 DE=-1.39D-08 OVMax= 1.98D-05

 Cycle   6  Pass 1  IDiag  3:
 E=-0.100176659570707     Delta-E=       -0.000000000385 Rises=F Damp=F
 DIIS: error= 1.80D-07 at cycle   6 NSaved=   6.
 NSaved= 6 IEnMin= 6 EnMin=-0.100176659570707     IErMin= 6 ErrMin= 1.80D-07
 ErrMax= 1.80D-07  0.00D+00 EMaxC= 1.00D-01 BMatC= 1.79D-12 BMatP= 6.39D-11
 IDIUse=1 WtCom= 1.00D+00 WtEn= 0.00D+00
 Coeff-Com: -0.273D-02 0.127D-01-0.269D-01 0.844D-01-0.373D+00 0.131D+01
 Coeff:     -0.273D-02 0.127D-01-0.269D-01 0.844D-01-0.373D+00 0.131D+01
 Gap=     0.345 Goal=   None    Shift=    0.000
 RMSDP=3.17D-07 MaxDP=8.09D-07 DE=-3.85D-10 OVMax= 1.78D-06

 Cycle   7  Pass 1  IDiag  3:
 E=-0.100176659580882     Delta-E=       -0.000000000010 Rises=F Damp=F
 DIIS: error= 5.38D-08 at cycle   7 NSaved=   7.
 NSaved= 7 IEnMin= 7 EnMin=-0.100176659580882     IErMin= 7 ErrMin= 5.38D-08
 ErrMax= 5.38D-08  0.00D+00 EMaxC= 1.00D-01 BMatC= 1.04D-13 BMatP= 1.79D-12
 IDIUse=1 WtCom= 1.00D+00 WtEn= 0.00D+00
 Coeff-Com:  0.195D-03-0.988D-03 0.173D-02-0.937D-02 0.772D-01-0.517D+00
 Coeff-Com:  0.145D+01
 Coeff:      0.195D-03-0.988D-03 0.173D-02-0.937D-02 0.772D-01-0.517D+00
 Coeff:      0.145D+01
 Gap=     0.345 Goal=   None    Shift=    0.000
 RMSDP=8.40D-08 MaxDP=3.53D-07 DE=-1.02D-11 OVMax= 4.55D-07

 Cycle   8  Pass 1  IDiag  3:
 E=-0.100176659581379     Delta-E=        0.000000000000 Rises=F Damp=F
 DIIS: error= 7.89D-09 at cycle   8 NSaved=   8.
 NSaved= 8 IEnMin= 8 EnMin=-0.100176659581379     IErMin= 8 ErrMin= 7.89D-09
 ErrMax= 7.89D-09  0.00D+00 EMaxC= 1.00D-01 BMatC= 1.81D-15 BMatP= 1.04D-13
 IDIUse=1 WtCom= 1.00D+00 WtEn= 0.00D+00
 Coeff-Com: -0.343D-04 0.196D-03-0.243D-03 0.256D-02-0.275D-01 0.205D+00
 Coeff-Com: -0.639D+00 0.146D+01
 Coeff:     -0.343D-04 0.196D-03-0.243D-03 0.256D-02-0.275D-01 0.205D+00
 Coeff:     -0.639D+00 0.146D+01
 Gap=     0.345 Goal=   None    Shift=    0.000
 RMSDP=1.15D-08 MaxDP=5.10D-08 DE=-4.97D-13 OVMax= 5.88D-08

 Cycle   9  Pass 1  IDiag  3:
 E=-0.100176659581464     Delta-E=        0.000000000000 Rises=F Damp=F
 DIIS: error= 1.73D-09 at cycle   9 NSaved=   9.
 NSaved= 9 IEnMin= 9 EnMin=-0.100176659581464     IErMin= 9 ErrMin= 1.73D-09
 ErrMax= 1.73D-09  0.00D+00 EMaxC= 1.00D-01 BMatC= 8.71D-17 BMatP= 1.81D-15
 IDIUse=1 WtCom= 1.00D+00 WtEn= 0.00D+00
 Coeff-Com:  0.241D-06-0.165D-04-0.375D-04-0.633D-03 0.960D-02-0.768D-01
 Coeff-Com:  0.251D+00-0.737D+00 0.155D+01
 Coeff:      0.241D-06-0.165D-04-0.375D-04-0.633D-03 0.960D-02-0.768D-01
 Coeff:      0.251D+00-0.737D+00 0.155D+01
 Gap=     0.345 Goal=   None    Shift=    0.000
 RMSDP=3.32D-09 MaxDP=1.16D-08 DE=-8.53D-14 OVMax= 2.04D-08

 Cycle  10  Pass 2  IDiag  1:
 SCF Done:  E(RAM1) = -0.100176659581     A.U. after   10 cycles
            NFock=  9  Conv=0.33D-08     -V/T= 0.9983
 KE=-5.724445674934D+01 PE=-6.383991250268D+01 EE= 5.540267602882D+01
 Leave Link  502 at Mon Nov  6 15:52:10 2017, MaxMem=   134217728 cpu:               0.1 elap:               0.1
 (Enter /n/sw/g16_nehalem/g16/l701.exe)
 ... and contract with generalized density number  0.
 Compute integral first derivatives.
 Leave Link  701 at Mon Nov  6 15:52:10 2017, MaxMem=   134217728 cpu:               0.1 elap:               0.1
 (Enter /n/sw/g16_nehalem/g16/l702.exe)
 L702 exits ... SP integral derivatives will be done elsewhere.
 Leave Link  702 at Mon Nov  6 15:52:10 2017, MaxMem=   134217728 cpu:               0.1 elap:               0.1
 (Enter /n/sw/g16_nehalem/g16/l703.exe)
 Integral derivatives from FoFJK, PRISM(SPDF).
 Compute integral first derivatives, UseDBF=F ICtDFT=           0.
 Calling FoFJK, ICntrl=      2127 FMM=F ISym2X=0 I1Cent= 0 IOpClX= 0 NMat=1 NMatS=1 NMatT=0.
 FoFJK:  IHMeth= 8 ICntrl=    2127 DoSepK=F KAlg= 0 I1Cent=           0 FoldK=F
 IRaf=         0 NMat=       1 IRICut=       1 DoRegI=T DoRafI=F ISym2E= 0 IDoP0=3 IntGTp=3.
 FoFCou: FMM=F IPFlag=           0 FMFlag=      100000 FMFlg1=         800
         NFxFlg=           0 DoJE=F BraDBF=F KetDBF=F FulRan=T
         wScrn=  0.000000 ICntrl=      2127 IOpCl=  0 I1Cent=           0 NGrid=           0
         NMat0=    1 NMatS0=      1 NMatT0=    0 NMatD0=    1 NMtDS0=    0 NMtDT0=    0
 Symmetry not used in FoFCou.
 Leave Link  703 at Mon Nov  6 15:52:10 2017, MaxMem=   134217728 cpu:               0.1 elap:               0.1
 (Enter /n/sw/g16_nehalem/g16/l716.exe)
 Dipole        = 2.92178535D+00 8.15321132D-06 3.94911985D-07
 ***** Axes restored to original set *****
 -------------------------------------------------------------------
 Center     Atomic                   Forces (Hartrees/Bohr)
 Number     Number              X              Y              Z
 -------------------------------------------------------------------
      1        6          -0.020101541   -0.000000679    0.000000056
      2        1           0.006741982   -0.000524254   -0.000803000
      3        1           0.006741988   -0.000432505    0.000855928
      4        1           0.006741371    0.000957619   -0.000052996
      5       17           0.012355471   -0.000000186    0.000000011
      6       17          -0.012479271    0.000000004    0.000000000
 -------------------------------------------------------------------
 Cartesian Forces:  Max     0.020101541 RMS     0.006878210
 Leave Link  716 at Mon Nov  6 15:52:10 2017, MaxMem=   134217728 cpu:               0.0 elap:               0.1
 (Enter /n/sw/g16_nehalem/g16/l103.exe)

 GradGradGradGradGradGradGradGradGradGradGradGradGradGradGradGradGradGrad
 Berny optimization.
 Using GEDIIS/GDIIS optimizer.
 FormGI is forming the generalized inverse of G from B-inverse, IUseBI=4.
 Internal  Forces:  Max     0.012355471 RMS     0.002620320
 Search for a local minimum.
 Step number   2 out of a maximum of   44
 All quantities printed in internal units (Hartrees-Bohrs-Radians)
 RMS Force = .26203D-02 SwitMx=.10000D-02 MixMth= 1
 Mixed Optimization -- RFO/linear search
 Update second derivatives using D2CorX and points    1    2
 DE= -1.03D-02 DEPred=-9.16D-03 R= 1.12D+00
 TightC=F SS=  1.41D+00  RLast= 2.86D-01 DXNew= 5.0454D-01 8.5773D-01
 Trust test= 1.12D+00 RLast= 2.86D-01 DXMaxT set to 5.05D-01
 ITU=  1  0
 Use linear search instead of GDIIS.
     Eigenvalues ---    0.02782   0.03552   0.03552   0.06979   0.06979
     Eigenvalues ---    0.09700   0.09700   0.10761   0.23300   0.23300
     Eigenvalues ---    0.26820   0.33535
 RFO step:  Lambda=-2.17801819D-03 EMin= 2.78238779D-02
 Quartic linear search produced a step of  0.18897.
 Iteration  1 RMS(Cart)=  0.02572381 RMS(Int)=  0.00039484
 Iteration  2 RMS(Cart)=  0.00021373 RMS(Int)=  0.00030560
 Iteration  3 RMS(Cart)=  0.00000004 RMS(Int)=  0.00030560
 ITry= 1 IFail=0 DXMaxC= 1.33D-01 DCOld= 1.00D+10 DXMaxT= 5.05D-01 DXLimC= 3.00D+00 Rises=F
 Variable       Old X    -DE/DX   Delta X   Delta X   Delta X     New X
                                 (Linear)    (Quad)   (Total)
    R1        2.10789  -0.00148  -0.02167   0.00880  -0.01319   2.09470
    R2        2.10789  -0.00148  -0.02167   0.00880  -0.01319   2.09470
    R3        2.10789  -0.00148  -0.02166   0.00880  -0.01319   2.09470
    R4        3.31071   0.01236   0.01632   0.03259   0.04892   3.35962
    R5        4.69543   0.00444   0.01630   0.13239   0.14883   4.84427
    R6        4.69544   0.00444   0.01630   0.13239   0.14883   4.84427
    R7        4.69549   0.00444   0.01630   0.13238   0.14883   4.84432
    A1        1.89338   0.00092   0.00231   0.01400   0.01584   1.90922
    A2        1.89339   0.00092   0.00231   0.01399   0.01583   1.90923
    A3        1.92758  -0.00089  -0.00221  -0.01352  -0.01554   1.91204
    A4        1.89339   0.00092   0.00231   0.01399   0.01583   1.90923
    A5        1.92758  -0.00089  -0.00221  -0.01352  -0.01554   1.91204
    A6        1.92758  -0.00089  -0.00221  -0.01352  -0.01554   1.91204
    A7        1.49343  -0.00028   0.00392  -0.00472  -0.00106   1.49236
    A8        1.49342  -0.00028   0.00392  -0.00472  -0.00106   1.49236
    A9        1.49340  -0.00028   0.00392  -0.00472  -0.00106   1.49234
   A10        0.74575  -0.00103  -0.01031  -0.01485  -0.02445   0.72130
   A11        0.74575  -0.00103  -0.01031  -0.01485  -0.02445   0.72130
   A12        0.74575  -0.00103  -0.01031  -0.01485  -0.02445   0.72130
    D1        1.02674   0.00106   0.00260   0.01606   0.01872   1.04546
    D2       -1.02677  -0.00106  -0.00260  -0.01606  -0.01872  -1.04549
    D3        3.14158   0.00000   0.00000   0.00000   0.00000   3.14158
    D4       -1.02674  -0.00106  -0.00260  -0.01606  -0.01872  -1.04546
    D5        1.02677   0.00106   0.00260   0.01606   0.01872   1.04549
    D6       -3.14158   0.00000   0.00000   0.00000   0.00000  -3.14158
    D7        1.02675   0.00106   0.00260   0.01606   0.01872   1.04548
    D8       -1.02675  -0.00106  -0.00260  -0.01606  -0.01872  -1.04548
    D9        3.14159   0.00000   0.00000   0.00000   0.00000   3.14159
   D10       -0.56675   0.00013   0.00135   0.00185   0.00298  -0.56377
   D11        0.56675  -0.00013  -0.00135  -0.00185  -0.00298   0.56377
   D12        0.56675  -0.00013  -0.00135  -0.00185  -0.00298   0.56377
   D13       -0.56675   0.00013   0.00135   0.00185   0.00298  -0.56377
   D14       -0.56675   0.00013   0.00135   0.00185   0.00298  -0.56377
   D15        0.56675  -0.00013  -0.00135  -0.00185  -0.00298   0.56377
         Item               Value     Threshold  Converged?
 Maximum Force            0.012355     0.000450     NO 
 RMS     Force            0.002620     0.000300     NO 
 Maximum Displacement     0.133141     0.001800     NO 
 RMS     Displacement     0.025788     0.001200     NO 
 Predicted change in Energy=-1.675372D-03
 Lowest energy point so far.  Saving SCF results.
 GradGradGradGradGradGradGradGradGradGradGradGradGradGradGradGradGradGrad

 Leave Link  103 at Mon Nov  6 15:52:10 2017, MaxMem=   134217728 cpu:               0.0 elap:               0.0
 (Enter /n/sw/g16_nehalem/g16/l202.exe)
                          Input orientation:                          
 ---------------------------------------------------------------------
 Center     Atomic      Atomic             Coordinates (Angstroms)
 Number     Number       Type             X           Y           Z
 ---------------------------------------------------------------------
      1          6           0        0.363939    0.000008    0.000000
      2          1           0       -0.007026   -0.571435   -0.874378
      3          1           0       -0.007026   -0.471501    0.932075
      4          1           0       -0.007006    1.042970   -0.057697
      5         17           0        2.141776   -0.000011    0.000000
      6         17           0       -2.348038   -0.000006    0.000000
 ---------------------------------------------------------------------
                    Distance matrix (angstroms):
                    1          2          3          4          5
     1  C    0.000000
     2  H    1.108467   0.000000
     3  H    1.108467   1.809215   0.000000
     4  H    1.108467   1.809218   1.809218   0.000000
     5  Cl   1.777837   2.389229   2.389229   2.389226   0.000000
     6  Cl   2.711978   2.563475   2.563476   2.563505   4.489815
                    6
     6  Cl   0.000000
 Stoichiometry    CH3Cl2(1-)
 Framework group  C1[X(CH3Cl2)]
 Deg. of freedom    12
 Full point group                 C1      NOp   1
 RotChk:  IX=2 Diff= 2.73D-02
 Largest Abelian subgroup         C1      NOp   1
 Largest concise Abelian subgroup C1      NOp   1
                         Standard orientation:                         
 ---------------------------------------------------------------------
 Center     Atomic      Atomic             Coordinates (Angstroms)
 Number     Number       Type             X           Y           Z
 ---------------------------------------------------------------------
      1          6           0        0.395192    0.000013    0.000001
      2          1           0        0.024227   -0.518789   -0.906602
      3          1           0        0.024228   -0.525723    0.902600
      4          1           0        0.024246    1.044561    0.004004
      5         17           0        2.173029   -0.000004    0.000000
      6         17           0       -2.316785   -0.000003    0.000000
 ---------------------------------------------------------------------
 Rotational constants (GHZ):         153.1972039           1.4182302           1.4182302
 Leave Link  202 at Mon Nov  6 15:52:10 2017, MaxMem=   134217728 cpu:               0.0 elap:               0.0
 (Enter /n/sw/g16_nehalem/g16/l301.exe)
 Standard basis: VSTO-6G (5D, 7F)
 Ernie: Thresh=  0.10000D-02 Tol=  0.10000D-05 Strict=F.
  NNHCO=     0 NNPyr=     0 NCTC=     0               EPep=         0.000000000
    EC=        30.882468198  ECS=         0.505352518   EG=         0.108542570
   EHC=         0.000000000  EAt=       -33.052413022  AtH=         0.613817027
 EPDDG=         0.000000000  ECC=        31.496363286 EAtT=        33.666230050
 There are    15 symmetry adapted cartesian basis functions of A   symmetry.
 There are    15 symmetry adapted basis functions of A   symmetry.
    15 basis functions,    90 primitive gaussians,    15 cartesian basis functions
    11 alpha electrons       11 beta electrons
       nuclear repulsion energy        65.1625933352 Hartrees.
 IExCor=    0 DFT=F Ex=HF Corr=None ExCW=0 ScaHFX=  1.000000
 ScaDFX=  1.000000  1.000000  1.000000  1.000000 ScalE2=  1.000000  1.000000
 IRadAn=      5 IRanWt=     -1 IRanGd=            0 ICorTp=0 IEmpDi=  4
 Integral buffers will be    131072 words long.
 Regular integral format.
 Two-electron integral symmetry is turned off.
 Leave Link  301 at Mon Nov  6 15:52:10 2017, MaxMem=   134217728 cpu:               0.1 elap:               0.1
 (Enter /n/sw/g16_nehalem/g16/l302.exe)
 Do NDO integrals.
 NPDir=0 NMtPBC=     1 NCelOv=     1 NCel=       1 NClECP=     1 NCelD=      1
         NCelK=      1 NCelE2=     1 NClLst=     1 CellRange=     0.0.
 One-electron integrals computed using PRISM.
 NBasis=    15 RedAO= F EigKep=  0.00D+00  NBF=    15
 NBsUse=    15 1.00D-04 EigRej=  0.00D+00 NBFU=    15
 Leave Link  302 at Mon Nov  6 15:52:11 2017, MaxMem=   134217728 cpu:               0.1 elap:               0.2
 (Enter /n/sw/g16_nehalem/g16/l303.exe)
 DipDrv:  MaxL=1.
 Leave Link  303 at Mon Nov  6 15:52:11 2017, MaxMem=   134217728 cpu:               0.0 elap:               0.1
 (Enter /n/sw/g16_nehalem/g16/l401.exe)
 Initial guess from the checkpoint file:  "/scratch/dhuang9_MeCl_postcomplex/Gau-53864.chk"
 B after Tr=     0.000000    0.000000    0.000000
         Rot=    0.999953   -0.009656    0.000000    0.000000 Ang=  -1.11 deg.
 Guess basis will be translated and rotated to current coordinates.
 JPrj=0 DoOrth=T DoCkMO=T.
 Leave Link  401 at Mon Nov  6 15:52:11 2017, MaxMem=   134217728 cpu:               0.2 elap:               0.2
 (Enter /n/sw/g16_nehalem/g16/l502.exe)
 Keep J ints in memory in canonical form, NReq=859725.
 FoFCou: FMM=F IPFlag=           0 FMFlag=           0 FMFlg1=           0
         NFxFlg=           0 DoJE=F BraDBF=F KetDBF=F FulRan=T
         wScrn=  0.000000 ICntrl=       600 IOpCl=  2 I1Cent=           0 NGrid=           0
         NMat0=    1 NMatS0=     33 NMatT0=    0 NMatD0=    1 NMtDS0=    0 NMtDT0=    0
 Symmetry not used in FoFCou.
 Two-electron integral symmetry not used.
 Closed shell SCF:
 Using DIIS extrapolation, IDIIS=  1040.
 Overlap will be assumed to be unity.
 NGot=   134217728 LenX=   134156826 LenY=   134155944
 Requested convergence on RMS density matrix=1.00D-08 within 128 cycles.
 Requested convergence on MAX density matrix=1.00D-06.
 Requested convergence on             energy=1.00D-06.
 No special actions if energy rises.

 Cycle   1  Pass 1  IDiag  1:
 E=-0.102115672038963    
 DIIS: error= 1.72D-03 at cycle   1 NSaved=   1.
 NSaved= 1 IEnMin= 1 EnMin=-0.102115672038963     IErMin= 1 ErrMin= 1.72D-03
 ErrMax= 1.72D-03  0.00D+00 EMaxC= 1.00D-01 BMatC= 6.68D-05 BMatP= 6.68D-05
 IDIUse=3 WtCom= 9.83D-01 WtEn= 1.72D-02
 Coeff-Com:  0.100D+01
 Coeff-En:   0.100D+01
 Coeff:      0.100D+01
 GapD=    2.000 DampG=2.000 DampE=1.000 DampFc=2.0000 IDamp=-1.
 RMSDP=1.01D-03 MaxDP=3.57D-03              OVMax= 0.00D+00

 Cycle   2  Pass 1  IDiag  3:
 E=-0.102320091668901     Delta-E=       -0.000204419630 Rises=F Damp=F
 DIIS: error= 4.62D-04 at cycle   2 NSaved=   2.
 NSaved= 2 IEnMin= 2 EnMin=-0.102320091668901     IErMin= 2 ErrMin= 4.62D-04
 ErrMax= 4.62D-04  0.00D+00 EMaxC= 1.00D-01 BMatC= 5.24D-06 BMatP= 6.68D-05
 IDIUse=3 WtCom= 9.95D-01 WtEn= 4.62D-03
 Coeff-Com: -0.361D+00 0.136D+01
 Coeff-En:   0.000D+00 0.100D+01
 Coeff:     -0.359D+00 0.136D+01
 Gap=     0.338 Goal=   None    Shift=    0.000
 RMSDP=4.54D-04 MaxDP=1.70D-03 DE=-2.04D-04 OVMax= 2.39D-03

 Cycle   3  Pass 1  IDiag  3:
 E=-0.102341984185131     Delta-E=       -0.000021892516 Rises=F Damp=F
 DIIS: error= 3.13D-05 at cycle   3 NSaved=   3.
 NSaved= 3 IEnMin= 3 EnMin=-0.102341984185131     IErMin= 3 ErrMin= 3.13D-05
 ErrMax= 3.13D-05  0.00D+00 EMaxC= 1.00D-01 BMatC= 5.59D-08 BMatP= 5.24D-06
 IDIUse=1 WtCom= 1.00D+00 WtEn= 0.00D+00
 Coeff-Com:  0.129D+00-0.528D+00 0.140D+01
 Coeff:      0.129D+00-0.528D+00 0.140D+01
 Gap=     0.337 Goal=   None    Shift=    0.000
 RMSDP=6.14D-05 MaxDP=2.25D-04 DE=-2.19D-05 OVMax= 3.19D-04

 Cycle   4  Pass 1  IDiag  3:
 E=-0.102342283093705     Delta-E=       -0.000000298909 Rises=F Damp=F
 DIIS: error= 3.47D-06 at cycle   4 NSaved=   4.
 NSaved= 4 IEnMin= 4 EnMin=-0.102342283093705     IErMin= 4 ErrMin= 3.47D-06
 ErrMax= 3.47D-06  0.00D+00 EMaxC= 1.00D-01 BMatC= 4.48D-10 BMatP= 5.59D-08
 IDIUse=1 WtCom= 1.00D+00 WtEn= 0.00D+00
 Coeff-Com: -0.437D-01 0.181D+00-0.499D+00 0.136D+01
 Coeff:     -0.437D-01 0.181D+00-0.499D+00 0.136D+01
 Gap=     0.337 Goal=   None    Shift=    0.000
 RMSDP=4.58D-06 MaxDP=1.79D-05 DE=-2.99D-07 OVMax= 2.47D-05

 Cycle   5  Pass 1  IDiag  3:
 E=-0.102342285341749     Delta-E=       -0.000000002248 Rises=F Damp=F
 DIIS: error= 8.93D-07 at cycle   5 NSaved=   5.
 NSaved= 5 IEnMin= 5 EnMin=-0.102342285341749     IErMin= 5 ErrMin= 8.93D-07
 ErrMax= 8.93D-07  0.00D+00 EMaxC= 1.00D-01 BMatC= 1.55D-11 BMatP= 4.48D-10
 IDIUse=1 WtCom= 1.00D+00 WtEn= 0.00D+00
 Coeff-Com:  0.152D-01-0.629D-01 0.174D+00-0.578D+00 0.145D+01
 Coeff:      0.152D-01-0.629D-01 0.174D+00-0.578D+00 0.145D+01
 Gap=     0.337 Goal=   None    Shift=    0.000
 RMSDP=1.01D-06 MaxDP=4.95D-06 DE=-2.25D-09 OVMax= 4.62D-06

 Cycle   6  Pass 1  IDiag  3:
 E=-0.102342285427426     Delta-E=       -0.000000000086 Rises=F Damp=F
 DIIS: error= 1.26D-07 at cycle   6 NSaved=   6.
 NSaved= 6 IEnMin= 6 EnMin=-0.102342285427426     IErMin= 6 ErrMin= 1.26D-07
 ErrMax= 1.26D-07  0.00D+00 EMaxC= 1.00D-01 BMatC= 3.09D-13 BMatP= 1.55D-11
 IDIUse=1 WtCom= 1.00D+00 WtEn= 0.00D+00
 Coeff-Com: -0.408D-02 0.170D-01-0.464D-01 0.158D+00-0.460D+00 0.134D+01
 Coeff:     -0.408D-02 0.170D-01-0.464D-01 0.158D+00-0.460D+00 0.134D+01
 Gap=     0.337 Goal=   None    Shift=    0.000
 RMSDP=1.25D-07 MaxDP=7.52D-07 DE=-8.57D-11 OVMax= 6.65D-07

 Cycle   7  Pass 1  IDiag  3:
 E=-0.102342285429231     Delta-E=       -0.000000000002 Rises=F Damp=F
 DIIS: error= 2.34D-08 at cycle   7 NSaved=   7.
 NSaved= 7 IEnMin= 7 EnMin=-0.102342285429231     IErMin= 7 ErrMin= 2.34D-08
 ErrMax= 2.34D-08  0.00D+00 EMaxC= 1.00D-01 BMatC= 2.04D-14 BMatP= 3.09D-13
 IDIUse=1 WtCom= 1.00D+00 WtEn= 0.00D+00
 Coeff-Com:  0.695D-03-0.291D-02 0.775D-02-0.266D-01 0.891D-01-0.518D+00
 Coeff-Com:  0.145D+01
 Coeff:      0.695D-03-0.291D-02 0.775D-02-0.266D-01 0.891D-01-0.518D+00
 Coeff:      0.145D+01
 Gap=     0.337 Goal=   None    Shift=    0.000
 RMSDP=4.57D-08 MaxDP=1.82D-07 DE=-1.80D-12 OVMax= 2.66D-07

 Cycle   8  Pass 1  IDiag  3:
 E=-0.102342285429359     Delta-E=        0.000000000000 Rises=F Damp=F
 DIIS: error= 4.43D-09 at cycle   8 NSaved=   8.
 NSaved= 8 IEnMin= 8 EnMin=-0.102342285429359     IErMin= 8 ErrMin= 4.43D-09
 ErrMax= 4.43D-09  0.00D+00 EMaxC= 1.00D-01 BMatC= 3.79D-16 BMatP= 2.04D-14
 IDIUse=1 WtCom= 1.00D+00 WtEn= 0.00D+00
 Coeff-Com: -0.111D-03 0.471D-03-0.118D-02 0.407D-02-0.170D-01 0.152D+00
 Coeff-Com: -0.536D+00 0.140D+01
 Coeff:     -0.111D-03 0.471D-03-0.118D-02 0.407D-02-0.170D-01 0.152D+00
 Coeff:     -0.536D+00 0.140D+01
 Gap=     0.337 Goal=   None    Shift=    0.000
 RMSDP=6.27D-09 MaxDP=3.67D-08 DE=-1.28D-13 OVMax= 4.03D-08

 Cycle   9  Pass 2  IDiag  1:
 SCF Done:  E(RAM1) = -0.102342285429     A.U. after    9 cycles
            NFock=  8  Conv=0.63D-08     -V/T= 0.9982
 KE=-5.725635658488D+01 PE=-6.295967512322D+01 EE= 5.495109608745D+01
 Leave Link  502 at Mon Nov  6 15:52:11 2017, MaxMem=   134217728 cpu:               0.1 elap:               0.1
 (Enter /n/sw/g16_nehalem/g16/l701.exe)
 ... and contract with generalized density number  0.
 Compute integral first derivatives.
 Leave Link  701 at Mon Nov  6 15:52:11 2017, MaxMem=   134217728 cpu:               0.1 elap:               0.1
 (Enter /n/sw/g16_nehalem/g16/l702.exe)
 L702 exits ... SP integral derivatives will be done elsewhere.
 Leave Link  702 at Mon Nov  6 15:52:11 2017, MaxMem=   134217728 cpu:               0.1 elap:               0.1
 (Enter /n/sw/g16_nehalem/g16/l703.exe)
 Integral derivatives from FoFJK, PRISM(SPDF).
 Compute integral first derivatives, UseDBF=F ICtDFT=           0.
 Calling FoFJK, ICntrl=      2127 FMM=F ISym2X=0 I1Cent= 0 IOpClX= 0 NMat=1 NMatS=1 NMatT=0.
 FoFJK:  IHMeth= 8 ICntrl=    2127 DoSepK=F KAlg= 0 I1Cent=           0 FoldK=F
 IRaf=         0 NMat=       1 IRICut=       1 DoRegI=T DoRafI=F ISym2E= 0 IDoP0=3 IntGTp=3.
 FoFCou: FMM=F IPFlag=           0 FMFlag=      100000 FMFlg1=         800
         NFxFlg=           0 DoJE=F BraDBF=F KetDBF=F FulRan=T
         wScrn=  0.000000 ICntrl=      2127 IOpCl=  0 I1Cent=           0 NGrid=           0
         NMat0=    1 NMatS0=      1 NMatT0=    0 NMatD0=    1 NMtDS0=    0 NMtDT0=    0
 Symmetry not used in FoFCou.
 Leave Link  703 at Mon Nov  6 15:52:11 2017, MaxMem=   134217728 cpu:               0.1 elap:               0.1
 (Enter /n/sw/g16_nehalem/g16/l716.exe)
 Dipole        = 3.02569403D+00 1.10131717D-05 4.71871539D-07
 ***** Axes restored to original set *****
 -------------------------------------------------------------------
 Center     Atomic                   Forces (Hartrees/Bohr)
 Number     Number              X              Y              Z
 -------------------------------------------------------------------
      1        6          -0.007303660    0.000000263    0.000000017
      2        1           0.004366319   -0.002094248   -0.003204683
      3        1           0.004366326   -0.001727968    0.003416101
      4        1           0.004366207    0.003821955   -0.000211436
      5       17           0.001429154   -0.000000040    0.000000002
      6       17          -0.007224346    0.000000037   -0.000000001
 -------------------------------------------------------------------
 Cartesian Forces:  Max     0.007303660 RMS     0.003405339
 Leave Link  716 at Mon Nov  6 15:52:11 2017, MaxMem=   134217728 cpu:               0.1 elap:               0.1
 (Enter /n/sw/g16_nehalem/g16/l103.exe)

 GradGradGradGradGradGradGradGradGradGradGradGradGradGradGradGradGradGrad
 Berny optimization.
 Using GEDIIS/GDIIS optimizer.
 FormGI is forming the generalized inverse of G from B-inverse, IUseBI=4.
 Internal  Forces:  Max     0.002797215 RMS     0.001196691
 Search for a local minimum.
 Step number   3 out of a maximum of   44
 All quantities printed in internal units (Hartrees-Bohrs-Radians)
 RMS Force = .11967D-02 SwitMx=.10000D-02 MixMth= 1
 Mixed Optimization -- RFO/linear search
 Update second derivatives using D2CorX and points    1    2    3
 DE= -2.17D-03 DEPred=-1.68D-03 R= 1.29D+00
 TightC=F SS=  1.41D+00  RLast= 2.73D-01 DXNew= 8.4853D-01 8.2047D-01
 Trust test= 1.29D+00 RLast= 2.73D-01 DXMaxT set to 8.20D-01
 ITU=  1  1  0
 Use linear search instead of GDIIS.
     Eigenvalues ---    0.01470   0.03596   0.03596   0.07101   0.07101
     Eigenvalues ---    0.09758   0.09758   0.10080   0.23305   0.23306
     Eigenvalues ---    0.32083   0.36727
 RFO step:  Lambda=-8.42916121D-04 EMin= 1.47001846D-02
 Quartic linear search produced a step of  1.11677.
 Iteration  1 RMS(Cart)=  0.03225622 RMS(Int)=  0.00818864
 Iteration  2 RMS(Cart)=  0.00457376 RMS(Int)=  0.00077477
 Iteration  3 RMS(Cart)=  0.00000192 RMS(Int)=  0.00077477
 Iteration  4 RMS(Cart)=  0.00000000 RMS(Int)=  0.00077477
 ITry= 1 IFail=0 DXMaxC= 1.88D-01 DCOld= 1.00D+10 DXMaxT= 8.20D-01 DXLimC= 3.00D+00 Rises=F
 Variable       Old X    -DE/DX   Delta X   Delta X   Delta X     New X
                                 (Linear)    (Quad)   (Total)
    R1        2.09470   0.00157  -0.01473   0.01005  -0.00529   2.08941
    R2        2.09470   0.00157  -0.01473   0.01005  -0.00529   2.08941
    R3        2.09470   0.00157  -0.01473   0.01004  -0.00529   2.08941
    R4        3.35962   0.00143   0.05463  -0.01980   0.03483   3.39445
    R5        4.84427   0.00280   0.16621   0.06138   0.22784   5.07211
    R6        4.84427   0.00280   0.16621   0.06138   0.22784   5.07211
    R7        4.84432   0.00280   0.16621   0.06138   0.22784   5.07216
    A1        1.90922   0.00089   0.01769   0.01238   0.02833   1.93755
    A2        1.90923   0.00089   0.01768   0.01239   0.02833   1.93755
    A3        1.91204  -0.00089  -0.01735  -0.01235  -0.02916   1.88288
    A4        1.90923   0.00089   0.01768   0.01239   0.02833   1.93755
    A5        1.91204  -0.00089  -0.01735  -0.01235  -0.02916   1.88288
    A6        1.91204  -0.00089  -0.01735  -0.01235  -0.02916   1.88288
    A7        1.49236  -0.00110  -0.00119  -0.01079  -0.01233   1.48004
    A8        1.49236  -0.00110  -0.00119  -0.01079  -0.01233   1.48003
    A9        1.49234  -0.00110  -0.00119  -0.01079  -0.01233   1.48001
   A10        0.72130   0.00037  -0.02731  -0.00263  -0.02849   0.69281
   A11        0.72130   0.00037  -0.02731  -0.00263  -0.02849   0.69281
   A12        0.72130   0.00037  -0.02731  -0.00263  -0.02849   0.69281
    D1        1.04546   0.00108   0.02091   0.01509   0.03655   1.08201
    D2       -1.04549  -0.00108  -0.02091  -0.01509  -0.03655  -1.08204
    D3        3.14158   0.00000   0.00000   0.00000   0.00000   3.14158
    D4       -1.04546  -0.00108  -0.02091  -0.01509  -0.03655  -1.08201
    D5        1.04549   0.00108   0.02091   0.01509   0.03655   1.08204
    D6       -3.14158   0.00000   0.00000   0.00000   0.00000  -3.14158
    D7        1.04548   0.00108   0.02091   0.01509   0.03655   1.08203
    D8       -1.04548  -0.00108  -0.02091  -0.01509  -0.03655  -1.08203
    D9        3.14159   0.00000   0.00000   0.00000   0.00000   3.14159
   D10       -0.56377  -0.00004   0.00333   0.00031   0.00331  -0.56045
   D11        0.56377   0.00004  -0.00332  -0.00031  -0.00331   0.56046
   D12        0.56377   0.00004  -0.00333  -0.00031  -0.00331   0.56045
   D13       -0.56377  -0.00004   0.00332   0.00031   0.00331  -0.56046
   D14       -0.56377  -0.00004   0.00333   0.00031   0.00331  -0.56046
   D15        0.56377   0.00004  -0.00333  -0.00031  -0.00331   0.56046
         Item               Value     Threshold  Converged?
 Maximum Force            0.002797     0.000450     NO 
 RMS     Force            0.001197     0.000300     NO 
 Maximum Displacement     0.187817     0.001800     NO 
 RMS     Displacement     0.036661     0.001200     NO 
 Predicted change in Energy=-1.027065D-03
 Lowest energy point so far.  Saving SCF results.
 GradGradGradGradGradGradGradGradGradGradGradGradGradGradGradGradGradGrad

 Leave Link  103 at Mon Nov  6 15:52:11 2017, MaxMem=   134217728 cpu:               0.0 elap:               0.0
 (Enter /n/sw/g16_nehalem/g16/l202.exe)
                          Input orientation:                          
 ---------------------------------------------------------------------
 Center     Atomic      Atomic             Coordinates (Angstroms)
 Number     Number       Type             X           Y           Z
 ---------------------------------------------------------------------
      1          6           0        0.361246    0.000007    0.000000
      2          1           0        0.021755   -0.575651   -0.880834
      3          1           0        0.021756   -0.474980    0.938957
      4          1           0        0.021774    1.050668   -0.058123
      5         17           0        2.157514   -0.000012    0.000001
      6         17           0       -2.447427   -0.000007    0.000000
 ---------------------------------------------------------------------
                    Distance matrix (angstroms):
                    1          2          3          4          5
     1  C    0.000000
     2  H    1.105670   0.000000
     3  H    1.105670   1.822573   0.000000
     4  H    1.105670   1.822572   1.822572   0.000000
     5  Cl   1.796268   2.380903   2.380903   2.380902   0.000000
     6  Cl   2.808673   2.684044   2.684045   2.684073   4.604941
                    6
     6  Cl   0.000000
 This structure is nearly, but not quite of a higher symmetry.
 Consider Symm=Loose if the higher symmetry is desired.
 Stoichiometry    CH3Cl2(1-)
 Framework group  C1[X(CH3Cl2)]
 Deg. of freedom    12
 Full point group                 C1      NOp   1
 RotChk:  IX=3 Diff= 1.94D+00
 Largest Abelian subgroup         C1      NOp   1
 Largest concise Abelian subgroup C1      NOp   1
                         Standard orientation:                         
 ---------------------------------------------------------------------
 Center     Atomic      Atomic             Coordinates (Angstroms)
 Number     Number       Type             X           Y           Z
 ---------------------------------------------------------------------
      1          6           0        0.423934    0.000009    0.001914
      2          1           0        0.087009    0.880836   -0.575261
      3          1           0        0.086595   -0.938955   -0.474590
      4          1           0        0.079753    0.058125    1.051042
      5         17           0        2.220184    0.000044    0.009948
      6         17           0       -2.384711   -0.000048   -0.010693
 ---------------------------------------------------------------------
 Rotational constants (GHZ):         150.9602609           1.3473571           1.3473571
 Leave Link  202 at Mon Nov  6 15:52:11 2017, MaxMem=   134217728 cpu:               0.0 elap:               0.0
 (Enter /n/sw/g16_nehalem/g16/l301.exe)
 Standard basis: VSTO-6G (5D, 7F)
 Ernie: Thresh=  0.10000D-02 Tol=  0.10000D-05 Strict=F.
  NNHCO=     0 NNPyr=     0 NCTC=     0               EPep=         0.000000000
    EC=        30.397471106  ECS=         0.499679345   EG=         0.105162448
   EHC=         0.000000000  EAt=       -33.052413022  AtH=         0.613817027
 EPDDG=         0.000000000  ECC=        31.002312899 EAtT=        33.666230050
 There are    15 symmetry adapted cartesian basis functions of A   symmetry.
 There are    15 symmetry adapted basis functions of A   symmetry.
    15 basis functions,    90 primitive gaussians,    15 cartesian basis functions
    11 alpha electrons       11 beta electrons
       nuclear repulsion energy        64.6685429482 Hartrees.
 IExCor=    0 DFT=F Ex=HF Corr=None ExCW=0 ScaHFX=  1.000000
 ScaDFX=  1.000000  1.000000  1.000000  1.000000 ScalE2=  1.000000  1.000000
 IRadAn=      5 IRanWt=     -1 IRanGd=            0 ICorTp=0 IEmpDi=  4
 Integral buffers will be    131072 words long.
 Regular integral format.
 Two-electron integral symmetry is turned off.
 Leave Link  301 at Mon Nov  6 15:52:12 2017, MaxMem=   134217728 cpu:               0.1 elap:               0.1
 (Enter /n/sw/g16_nehalem/g16/l302.exe)
 Do NDO integrals.
 NPDir=0 NMtPBC=     1 NCelOv=     1 NCel=       1 NClECP=     1 NCelD=      1
         NCelK=      1 NCelE2=     1 NClLst=     1 CellRange=     0.0.
 One-electron integrals computed using PRISM.
 NBasis=    15 RedAO= F EigKep=  0.00D+00  NBF=    15
 NBsUse=    15 1.00D-04 EigRej=  0.00D+00 NBFU=    15
 Leave Link  302 at Mon Nov  6 15:52:12 2017, MaxMem=   134217728 cpu:               0.1 elap:               0.2
 (Enter /n/sw/g16_nehalem/g16/l303.exe)
 DipDrv:  MaxL=1.
 Leave Link  303 at Mon Nov  6 15:52:12 2017, MaxMem=   134217728 cpu:               0.1 elap:               0.1
 (Enter /n/sw/g16_nehalem/g16/l401.exe)
 Initial guess from the checkpoint file:  "/scratch/dhuang9_MeCl_postcomplex/Gau-53864.chk"
 B after Tr=     0.000000    0.000000    0.000000
         Rot=    0.727687   -0.685906    0.001624   -0.001545 Ang= -86.61 deg.
 Guess basis will be translated and rotated to current coordinates.
 JPrj=0 DoOrth=T DoCkMO=T.
 Leave Link  401 at Mon Nov  6 15:52:12 2017, MaxMem=   134217728 cpu:               0.2 elap:               0.2
 (Enter /n/sw/g16_nehalem/g16/l502.exe)
 Keep J ints in memory in canonical form, NReq=859725.
 FoFCou: FMM=F IPFlag=           0 FMFlag=           0 FMFlg1=           0
         NFxFlg=           0 DoJE=F BraDBF=F KetDBF=F FulRan=T
         wScrn=  0.000000 ICntrl=       600 IOpCl=  2 I1Cent=           0 NGrid=           0
         NMat0=    1 NMatS0=     33 NMatT0=    0 NMatD0=    1 NMtDS0=    0 NMtDT0=    0
 Symmetry not used in FoFCou.
 Two-electron integral symmetry not used.
 Closed shell SCF:
 Using DIIS extrapolation, IDIIS=  1040.
 Overlap will be assumed to be unity.
 NGot=   134217728 LenX=   134156826 LenY=   134155944
 Requested convergence on RMS density matrix=1.00D-08 within 128 cycles.
 Requested convergence on MAX density matrix=1.00D-06.
 Requested convergence on             energy=1.00D-06.
 No special actions if energy rises.

 Cycle   1  Pass 1  IDiag  1:
 E=-0.103356407225462    
 DIIS: error= 1.97D-03 at cycle   1 NSaved=   1.
 NSaved= 1 IEnMin= 1 EnMin=-0.103356407225462     IErMin= 1 ErrMin= 1.97D-03
 ErrMax= 1.97D-03  0.00D+00 EMaxC= 1.00D-01 BMatC= 8.02D-05 BMatP= 8.02D-05
 IDIUse=3 WtCom= 9.80D-01 WtEn= 1.97D-02
 Coeff-Com:  0.100D+01
 Coeff-En:   0.100D+01
 Coeff:      0.100D+01
 GapD=    2.000 DampG=2.000 DampE=1.000 DampFc=2.0000 IDamp=-1.
 RMSDP=1.34D-03 MaxDP=5.54D-03              OVMax= 0.00D+00

 Cycle   2  Pass 1  IDiag  3:
 E=-0.103659757125641     Delta-E=       -0.000303349900 Rises=F Damp=F
 DIIS: error= 5.82D-04 at cycle   2 NSaved=   2.
 NSaved= 2 IEnMin= 2 EnMin=-0.103659757125641     IErMin= 2 ErrMin= 5.82D-04
 ErrMax= 5.82D-04  0.00D+00 EMaxC= 1.00D-01 BMatC= 7.74D-06 BMatP= 8.02D-05
 IDIUse=3 WtCom= 9.94D-01 WtEn= 5.82D-03
 Coeff-Com: -0.424D+00 0.142D+01
 Coeff-En:   0.000D+00 0.100D+01
 Coeff:     -0.422D+00 0.142D+01
 Gap=     0.329 Goal=   None    Shift=    0.000
 RMSDP=6.63D-04 MaxDP=2.85D-03 DE=-3.03D-04 OVMax= 4.45D-03

 Cycle   3  Pass 1  IDiag  3:
 E=-0.103698202311946     Delta-E=       -0.000038445186 Rises=F Damp=F
 DIIS: error= 3.75D-05 at cycle   3 NSaved=   3.
 NSaved= 3 IEnMin= 3 EnMin=-0.103698202311946     IErMin= 3 ErrMin= 3.75D-05
 ErrMax= 3.75D-05  0.00D+00 EMaxC= 1.00D-01 BMatC= 5.82D-08 BMatP= 7.74D-06
 IDIUse=1 WtCom= 1.00D+00 WtEn= 0.00D+00
 Coeff-Com:  0.130D+00-0.474D+00 0.134D+01
 Coeff:      0.130D+00-0.474D+00 0.134D+01
 Gap=     0.329 Goal=   None    Shift=    0.000
 RMSDP=6.75D-05 MaxDP=3.05D-04 DE=-3.84D-05 OVMax= 4.82D-04

 Cycle   4  Pass 1  IDiag  3:
 E=-0.103698534995644     Delta-E=       -0.000000332684 Rises=F Damp=F
 DIIS: error= 5.26D-06 at cycle   4 NSaved=   4.
 NSaved= 4 IEnMin= 4 EnMin=-0.103698534995644     IErMin= 4 ErrMin= 5.26D-06
 ErrMax= 5.26D-06  0.00D+00 EMaxC= 1.00D-01 BMatC= 8.48D-10 BMatP= 5.82D-08
 IDIUse=1 WtCom= 1.00D+00 WtEn= 0.00D+00
 Coeff-Com: -0.461D-01 0.171D+00-0.515D+00 0.139D+01
 Coeff:     -0.461D-01 0.171D+00-0.515D+00 0.139D+01
 Gap=     0.329 Goal=   None    Shift=    0.000
 RMSDP=6.76D-06 MaxDP=2.58D-05 DE=-3.33D-07 OVMax= 3.63D-05

 Cycle   5  Pass 1  IDiag  3:
 E=-0.103698539526349     Delta-E=       -0.000000004531 Rises=F Damp=F
 DIIS: error= 1.40D-06 at cycle   5 NSaved=   5.
 NSaved= 5 IEnMin= 5 EnMin=-0.103698539526349     IErMin= 5 ErrMin= 1.40D-06
 ErrMax= 1.40D-06  0.00D+00 EMaxC= 1.00D-01 BMatC= 3.26D-11 BMatP= 8.48D-10
 IDIUse=1 WtCom= 1.00D+00 WtEn= 0.00D+00
 Coeff-Com:  0.163D-01-0.606D-01 0.183D+00-0.608D+00 0.147D+01
 Coeff:      0.163D-01-0.606D-01 0.183D+00-0.608D+00 0.147D+01
 Gap=     0.329 Goal=   None    Shift=    0.000
 RMSDP=1.63D-06 MaxDP=8.25D-06 DE=-4.53D-09 OVMax= 1.01D-05

 Cycle   6  Pass 1  IDiag  3:
 E=-0.103698539728669     Delta-E=       -0.000000000202 Rises=F Damp=F
 DIIS: error= 2.33D-07 at cycle   6 NSaved=   6.
 NSaved= 6 IEnMin= 6 EnMin=-0.103698539728669     IErMin= 6 ErrMin= 2.33D-07
 ErrMax= 2.33D-07  0.00D+00 EMaxC= 1.00D-01 BMatC= 1.17D-12 BMatP= 3.26D-11
 IDIUse=1 WtCom= 1.00D+00 WtEn= 0.00D+00
 Coeff-Com: -0.421D-02 0.158D-01-0.470D-01 0.171D+00-0.533D+00 0.140D+01
 Coeff:     -0.421D-02 0.158D-01-0.470D-01 0.171D+00-0.533D+00 0.140D+01
 Gap=     0.329 Goal=   None    Shift=    0.000
 RMSDP=2.75D-07 MaxDP=1.56D-06 DE=-2.02D-10 OVMax= 1.37D-06

 Cycle   7  Pass 1  IDiag  3:
 E=-0.103698539735802     Delta-E=       -0.000000000007 Rises=F Damp=F
 DIIS: error= 2.77D-08 at cycle   7 NSaved=   7.
 NSaved= 7 IEnMin= 7 EnMin=-0.103698539735802     IErMin= 7 ErrMin= 2.77D-08
 ErrMax= 2.77D-08  0.00D+00 EMaxC= 1.00D-01 BMatC= 4.85D-14 BMatP= 1.17D-12
 IDIUse=1 WtCom= 1.00D+00 WtEn= 0.00D+00
 Coeff-Com:  0.333D-03-0.129D-02 0.346D-02-0.155D-01 0.703D-01-0.396D+00
 Coeff-Com:  0.134D+01
 Coeff:      0.333D-03-0.129D-02 0.346D-02-0.155D-01 0.703D-01-0.396D+00
 Coeff:      0.134D+01
 Gap=     0.329 Goal=   None    Shift=    0.000
 RMSDP=6.58D-08 MaxDP=2.76D-07 DE=-7.13D-12 OVMax= 3.55D-07

 Cycle   8  Pass 1  IDiag  3:
 E=-0.103698539736158     Delta-E=        0.000000000000 Rises=F Damp=F
 DIIS: error= 4.08D-09 at cycle   8 NSaved=   8.
 NSaved= 8 IEnMin= 8 EnMin=-0.103698539736158     IErMin= 8 ErrMin= 4.08D-09
 ErrMax= 4.08D-09  0.00D+00 EMaxC= 1.00D-01 BMatC= 7.27D-16 BMatP= 4.85D-14
 IDIUse=1 WtCom= 1.00D+00 WtEn= 0.00D+00
 Coeff-Com: -0.702D-04 0.283D-03-0.663D-03 0.383D-02-0.223D-01 0.153D+00
 Coeff-Com: -0.591D+00 0.146D+01
 Coeff:     -0.702D-04 0.283D-03-0.663D-03 0.383D-02-0.223D-01 0.153D+00
 Coeff:     -0.591D+00 0.146D+01
 Gap=     0.329 Goal=   None    Shift=    0.000
 RMSDP=8.06D-09 MaxDP=2.88D-08 DE=-3.55D-13 OVMax= 3.96D-08

 Cycle   9  Pass 2  IDiag  1:
 SCF Done:  E(RAM1) = -0.103698539736     A.U. after    9 cycles
            NFock=  8  Conv=0.81D-08     -V/T= 0.9982
 KE=-5.726566892997D+01 PE=-6.191976847327D+01 EE= 5.441319591533D+01
 Leave Link  502 at Mon Nov  6 15:52:12 2017, MaxMem=   134217728 cpu:               0.1 elap:               0.1
 (Enter /n/sw/g16_nehalem/g16/l701.exe)
 ... and contract with generalized density number  0.
 Compute integral first derivatives.
 Leave Link  701 at Mon Nov  6 15:52:12 2017, MaxMem=   134217728 cpu:               0.1 elap:               0.1
 (Enter /n/sw/g16_nehalem/g16/l702.exe)
 L702 exits ... SP integral derivatives will be done elsewhere.
 Leave Link  702 at Mon Nov  6 15:52:12 2017, MaxMem=   134217728 cpu:               0.1 elap:               0.1
 (Enter /n/sw/g16_nehalem/g16/l703.exe)
 Integral derivatives from FoFJK, PRISM(SPDF).
 Compute integral first derivatives, UseDBF=F ICtDFT=           0.
 Calling FoFJK, ICntrl=      2127 FMM=F ISym2X=0 I1Cent= 0 IOpClX= 0 NMat=1 NMatS=1 NMatT=0.
 FoFJK:  IHMeth= 8 ICntrl=    2127 DoSepK=F KAlg= 0 I1Cent=           0 FoldK=F
 IRaf=         0 NMat=       1 IRICut=       1 DoRegI=T DoRafI=F ISym2E= 0 IDoP0=3 IntGTp=3.
 FoFCou: FMM=F IPFlag=           0 FMFlag=      100000 FMFlg1=         800
         NFxFlg=           0 DoJE=F BraDBF=F KetDBF=F FulRan=T
         wScrn=  0.000000 ICntrl=      2127 IOpCl=  0 I1Cent=           0 NGrid=           0
         NMat0=    1 NMatS0=      1 NMatT0=    0 NMatD0=    1 NMtDS0=    0 NMtDT0=    0
 Symmetry not used in FoFCou.
 Leave Link  703 at Mon Nov  6 15:52:12 2017, MaxMem=   134217728 cpu:               0.1 elap:               0.1
 (Enter /n/sw/g16_nehalem/g16/l716.exe)
 Dipole        = 3.19282689D+00 6.45277172D-05 1.43262958D-02
 ***** Axes restored to original set *****
 -------------------------------------------------------------------
 Center     Atomic                   Forces (Hartrees/Bohr)
 Number     Number              X              Y              Z
 -------------------------------------------------------------------
      1        6           0.003195646    0.000000410   -0.000000026
      2        1           0.000871522   -0.001625786   -0.002487346
      3        1           0.000871513   -0.001341487    0.002651489
      4        1           0.000871589    0.002966739   -0.000164112
[...]
     20 -0.390765D-02 -0.335125D-02  0.729563D-03  0.145098D-03  0.703322D-02
     21  0.134009D-02 -0.729448D-03  0.335141D-02 -0.144942D-03 -0.250081D-02
     22 -0.160127D-02  0.902947D-03 -0.902904D-03  0.000000D+00 -0.312933D-02
     23  0.390765D-02  0.335125D-02 -0.145100D-03 -0.729565D-03 -0.642981D-02
     24 -0.134010D-02  0.729445D-03  0.144937D-03 -0.335141D-02  0.183332D-02
     25  0.160127D-02 -0.902949D-03  0.000000D+00  0.902904D-03  0.186743D-02
     26 -0.154671D-02  0.144981D-03 -0.335122D-02  0.729500D-03  0.183334D-02
     27  0.154671D-02 -0.144974D-03 -0.729495D-03  0.335123D-02 -0.176930D-02
     28  0.000000D+00  0.000000D+00  0.902953D-03 -0.902952D-03  0.126188D-02
     29  0.179144D-02  0.712099D-03  0.379863D-02 -0.784278D-02 -0.263981D-02
     30 -0.513923D-02 -0.379865D-02 -0.712177D-03  0.784285D-02 -0.353866D-03
     31 -0.179143D-02 -0.712096D-03  0.784278D-02 -0.379863D-02  0.444394D-02
     32  0.513923D-02  0.379865D-02 -0.784286D-02  0.712177D-03  0.671576D-03
     33 -0.517686D-02 -0.784282D-02  0.712098D-03  0.379860D-02  0.224211D-02
     34  0.517686D-02  0.784283D-02 -0.379860D-02 -0.712102D-03 -0.436397D-02
               21            22            23            24            25 
     21  0.703335D-02
     22 -0.312928D-02  0.222516D-01
     23  0.183332D-02  0.186742D-02  0.703322D-02
     24 -0.176931D-02  0.126194D-02 -0.250081D-02  0.703335D-02
     25  0.126194D-02 -0.111258D-01 -0.312933D-02 -0.312928D-02  0.222516D-01
     26 -0.642979D-02  0.186735D-02 -0.176930D-02  0.183341D-02  0.126187D-02
     27  0.183341D-02  0.126187D-02  0.183334D-02 -0.642979D-02  0.186735D-02
     28  0.186742D-02 -0.111258D-01  0.126188D-02  0.186741D-02 -0.111258D-01
     29 -0.353895D-03  0.849600D-03  0.444393D-02  0.224205D-02 -0.157300D-02
     30 -0.263973D-02  0.849575D-03  0.671575D-03 -0.436406D-02  0.723326D-03
     31  0.224205D-02 -0.157300D-02 -0.263981D-02 -0.353896D-03  0.849601D-03
     32 -0.436406D-02  0.723328D-03 -0.353867D-03 -0.263972D-02  0.849575D-03
     33  0.444402D-02 -0.157293D-02 -0.436396D-02  0.671610D-03  0.723432D-03
     34  0.671609D-03  0.723430D-03  0.224210D-02  0.444402D-02 -0.157293D-02
               26            27            28            29            30 
     26  0.703313D-02
     27 -0.250093D-02  0.703313D-02
     28 -0.312928D-02 -0.312928D-02  0.222516D-01
     29  0.671585D-03 -0.436386D-02  0.723397D-03  0.150349D-01
     30  0.444387D-02  0.224199D-02 -0.157300D-02 -0.233190D-02  0.150352D-01
     31 -0.436386D-02  0.671587D-03  0.723401D-03  0.490644D-02 -0.733329D-02
     32  0.224200D-02  0.444387D-02 -0.157300D-02 -0.733329D-02 -0.294310D-02
     33 -0.263966D-02 -0.353900D-03  0.849595D-03 -0.733325D-02  0.490655D-02
     34 -0.353899D-03 -0.263966D-02  0.849594D-03 -0.294315D-02 -0.733333D-02
               31            32            33            34 
     31  0.150349D-01
     32 -0.233189D-02  0.150352D-01
     33 -0.294315D-02 -0.733333D-02  0.150351D-01
     34 -0.733325D-02  0.490655D-02 -0.233183D-02  0.150351D-01
 Leave Link  716 at Mon Nov  6 15:52:22 2017, MaxMem=   134217728 cpu:               0.1 elap:               0.2
 (Enter /n/sw/g16_nehalem/g16/l103.exe)

 GradGradGradGradGradGradGradGradGradGradGradGradGradGradGradGradGradGrad
 Berny optimization.
 Red2BG is reusing G-inverse.
 Internal  Forces:  Max     0.000237266 RMS     0.000046017
 Search for a local minimum.
 Step number   1 out of a maximum of    2
 All quantities printed in internal units (Hartrees-Bohrs-Radians)
 Second derivative matrix not updated -- analytic derivatives used.
 ITU=  0
     Eigenvalues ---    0.00115   0.00115   0.00511   0.03052   0.05018
     Eigenvalues ---    0.05018   0.07423   0.07424   0.23153   0.28147
     Eigenvalues ---    0.28147   0.33270
 Angle between quadratic step and forces=  66.86 degrees.
 Linear search not attempted -- first point.
 Iteration  1 RMS(Cart)=  0.00040477 RMS(Int)=  0.00000005
 Iteration  2 RMS(Cart)=  0.00000002 RMS(Int)=  0.00000004
 ITry= 1 IFail=0 DXMaxC= 1.94D-03 DCOld= 1.00D+10 DXMaxT= 3.00D-01 DXLimC= 3.00D+00 Rises=F
 Variable       Old X    -DE/DX   Delta X   Delta X   Delta X     New X
                                 (Linear)    (Quad)   (Total)
    R1        2.09648  -0.00006   0.00000  -0.00020  -0.00020   2.09628
    R2        2.09648  -0.00006   0.00000  -0.00020  -0.00020   2.09628
    R3        2.09648  -0.00006   0.00000  -0.00020  -0.00020   2.09628
    R4        3.37156   0.00024   0.00000   0.00089   0.00089   3.37245
    R5        5.19197   0.00001   0.00000   0.00184   0.00184   5.19381
    R6        5.19197   0.00001   0.00000   0.00184   0.00184   5.19381
    R7        5.19201   0.00001   0.00000   0.00180   0.00180   5.19381
    A1        1.94236  -0.00001   0.00000  -0.00010  -0.00010   1.94226
    A2        1.94237  -0.00001   0.00000  -0.00010  -0.00010   1.94226
    A3        1.87772   0.00001   0.00000   0.00011   0.00011   1.87783
    A4        1.94237  -0.00001   0.00000  -0.00010  -0.00010   1.94226
    A5        1.87772   0.00001   0.00000   0.00011   0.00011   1.87783
    A6        1.87772   0.00001   0.00000   0.00011   0.00011   1.87783
    A7        1.48260   0.00003   0.00000   0.00030   0.00030   1.48291
    A8        1.48260   0.00003   0.00000   0.00030   0.00030   1.48291
    A9        1.48258   0.00003   0.00000   0.00032   0.00032   1.48291
   A10        0.67972  -0.00002   0.00000  -0.00034  -0.00034   0.67937
   A11        0.67971  -0.00002   0.00000  -0.00034  -0.00034   0.67937
   A12        0.67971  -0.00002   0.00000  -0.00034  -0.00034   0.67937
    D1        1.08867  -0.00002   0.00000  -0.00013  -0.00013   1.08854
    D2       -1.08869   0.00002   0.00000   0.00015   0.00015  -1.08854
    D3        3.14158   0.00000   0.00000   0.00001   0.00001   3.14159
    D4       -1.08867   0.00002   0.00000   0.00013   0.00013  -1.08854
    D5        1.08869  -0.00002   0.00000  -0.00015  -0.00015   1.08854
    D6       -3.14158   0.00000   0.00000  -0.00001  -0.00001  -3.14159
    D7        1.08868  -0.00002   0.00000  -0.00014  -0.00014   1.08854
    D8       -1.08868   0.00002   0.00000   0.00014   0.00014  -1.08854
    D9        3.14159   0.00000   0.00000   0.00000   0.00000   3.14159
   D10       -0.55899   0.00000   0.00000   0.00003   0.00003  -0.55896
   D11        0.55900   0.00000   0.00000  -0.00004  -0.00004   0.55896
   D12        0.55899   0.00000   0.00000  -0.00003  -0.00003   0.55896
   D13       -0.55900   0.00000   0.00000   0.00004   0.00004  -0.55896
   D14       -0.55900   0.00000   0.00000   0.00004   0.00004  -0.55896
   D15        0.55900   0.00000   0.00000  -0.00004  -0.00004   0.55896
         Item               Value     Threshold  Converged?
 Maximum Force            0.000237     0.000450     YES
 RMS     Force            0.000046     0.000300     YES
 Maximum Displacement     0.001943     0.001800     NO 
 RMS     Displacement     0.000405     0.001200     YES
 Predicted change in Energy=-1.809618D-07
                           ----------------------------
                           ! Non-Optimized Parameters !
                           ! (Angstroms and Degrees)  !
 --------------------------                            --------------------------
 ! Name  Definition              Value          Derivative Info.                !
 --------------------------------------------------------------------------------
 ! R1    R(1,2)                  1.1093         -DE/DX =   -0.0001              !
 ! R2    R(1,3)                  1.1093         -DE/DX =   -0.0001              !
 ! R3    R(1,4)                  1.1093         -DE/DX =   -0.0001              !
 ! R4    R(1,5)                  1.7846         -DE/DX =    0.0002              !
 ! R5    R(2,6)                  2.7484         -DE/DX =    0.0                 !
 ! R6    R(3,6)                  2.7484         -DE/DX =    0.0                 !
 ! R7    R(4,6)                  2.7484         -DE/DX =    0.0                 !
 ! A1    A(2,1,3)              111.2835         -DE/DX =    0.0                 !
 ! A2    A(2,1,4)              111.2835         -DE/DX =    0.0                 !
 ! A3    A(2,1,5)              107.5917         -DE/DX =    0.0                 !
 ! A4    A(3,1,4)              111.2835         -DE/DX =    0.0                 !
 ! A5    A(3,1,5)              107.5917         -DE/DX =    0.0                 !
 ! A6    A(4,1,5)              107.5917         -DE/DX =    0.0                 !
 ! A7    A(1,2,6)               84.9643         -DE/DX =    0.0                 !
 ! A8    A(1,3,6)               84.9643         -DE/DX =    0.0                 !
 ! A9    A(1,4,6)               84.9643         -DE/DX =    0.0                 !
 ! A10   A(2,6,3)               38.9252         -DE/DX =    0.0                 !
 ! A11   A(2,6,4)               38.9252         -DE/DX =    0.0                 !
 ! A12   A(3,6,4)               38.9252         -DE/DX =    0.0                 !
 ! D1    D(3,1,2,6)             62.3688         -DE/DX =    0.0                 !
 ! D2    D(4,1,2,6)            -62.3688         -DE/DX =    0.0                 !
 ! D3    D(5,1,2,6)            180.0            -DE/DX =    0.0                 !
 ! D4    D(2,1,3,6)            -62.3688         -DE/DX =    0.0                 !
 ! D5    D(4,1,3,6)             62.3688         -DE/DX =    0.0                 !
 ! D6    D(5,1,3,6)           -180.0            -DE/DX =    0.0                 !
 ! D7    D(2,1,4,6)             62.3688         -DE/DX =    0.0                 !
 ! D8    D(3,1,4,6)            -62.3688         -DE/DX =    0.0                 !
 ! D9    D(5,1,4,6)            180.0            -DE/DX =    0.0                 !
 ! D10   D(1,2,6,3)            -32.0259         -DE/DX =    0.0                 !
 ! D11   D(1,2,6,4)             32.0259         -DE/DX =    0.0                 !
 ! D12   D(1,3,6,2)             32.0259         -DE/DX =    0.0                 !
 ! D13   D(1,3,6,4)            -32.0259         -DE/DX =    0.0                 !
 ! D14   D(1,4,6,2)            -32.0259         -DE/DX =    0.0                 !
 ! D15   D(1,4,6,3)             32.0259         -DE/DX =    0.0                 !
 --------------------------------------------------------------------------------
 GradGradGradGradGradGradGradGradGradGradGradGradGradGradGradGradGradGrad

 Leave Link  103 at Mon Nov  6 15:52:22 2017, MaxMem=   134217728 cpu:               0.0 elap:               0.0
 (Enter /n/sw/g16_nehalem/g16/l9999.exe)

 ----------------------------------------------------------------------

 Electric dipole moment (input orientation):
 (Debye = 10**-18 statcoulomb cm , SI units = C m)
                  (au)            (Debye)         (10**-30 SI)
   Tot        0.332977D+01      0.846344D+01      0.282310D+02
   x          0.332977D+01      0.846344D+01      0.282310D+02
   y          0.000000D+00      0.000000D+00      0.000000D+00
   z          0.000000D+00      0.000000D+00      0.000000D+00

 Dipole polarizability, Alpha (input orientation).
 (esu units = cm**3 , SI units = C**2 m**2 J**-1)
 Alpha(0;0):
               (au)            (10**-24 esu)      (10**-40 SI)
   iso        0.171603D+02      0.254290D+01      0.282935D+01
   aniso      0.263122D+02      0.389906D+01      0.433829D+01
   xx         0.347018D+02      0.514227D+01      0.572155D+01
   yx        -0.131342D-03     -0.194628D-04     -0.216553D-04
   yy         0.838960D+01      0.124321D+01      0.138326D+01
   zx         0.000000D+00      0.000000D+00      0.000000D+00
   zy         0.000000D+00      0.000000D+00      0.000000D+00
   zz         0.838958D+01      0.124321D+01      0.138325D+01

 First dipole hyperpolarizability, Beta (input orientation).
 ||, _|_  parallel and perpendicular components, (z) with respect to z axis,
 vector components x,y,z.  Values do not include the 1/n! factor of 1/2.
 (esu units = statvolt**-1 cm**4 , SI units = C**3 m**3 J**-2)
 Beta(0;0,0):
               (au)            (10**-30 esu)      (10**-50 SI)
   || (z)     0.000000D+00      0.000000D+00      0.000000D+00
   _|_(z)     0.000000D+00      0.000000D+00      0.000000D+00
   x          0.279591D+04      0.241545D+02      0.896471D+01
   y          0.196151D-02      0.169460D-04      0.628932D-05
   z          0.290658D-04      0.251106D-06      0.931954D-07
   ||         0.559183D+03      0.483090D+01      0.179294D+01
   xxx        0.964082D+03      0.832891D+01      0.309119D+01
   xxy       -0.178578D-04     -0.154278D-06     -0.572586D-07
   yxy       -0.160550D+02     -0.138703D+00     -0.514783D-01
   yyy        0.196891D+02      0.170099D+00      0.631305D-01
   xxz        0.224578D-04      0.194018D-06      0.720079D-07
   yxz       -0.326197D-04     -0.281809D-06     -0.104591D-06
   yyz       -0.329448D+01     -0.284617D-01     -0.105633D-01
   zxz       -0.160555D+02     -0.138707D+00     -0.514797D-01
   zyz       -0.196885D+02     -0.170093D+00     -0.631283D-01
   zzz        0.329447D+01      0.284616D-01      0.105632D-01

 ----------------------------------------------------------------------

 Dipole orientation:
     6         -0.00000024          0.00001165          0.70202942
     1          1.67292457         -1.09330821          0.06861023
     1         -1.78331090         -0.90211398          0.06861170
     1          0.11038595          1.99547773          0.06864593
    17         -0.00000087         -0.00002389          4.07358499
    17         -0.00000040          0.00000342         -4.72330978

 Electric dipole moment (dipole orientation):
 (Debye = 10**-18 statcoulomb cm , SI units = C m)
                  (au)            (Debye)         (10**-30 SI)
   Tot        0.332977D+01      0.846344D+01      0.282310D+02
   x          0.000000D+00      0.000000D+00      0.000000D+00
   y          0.000000D+00      0.000000D+00      0.000000D+00
   z          0.332977D+01      0.846344D+01      0.282310D+02

 Dipole polarizability, Alpha (dipole orientation).
 (esu units = cm**3 , SI units = C**2 m**2 J**-1)
 Alpha(0;0):
               (au)            (10**-24 esu)      (10**-40 SI)
   iso        0.171603D+02      0.254290D+01      0.282935D+01
   aniso      0.263122D+02      0.389906D+01      0.433829D+01
   xx         0.838958D+01      0.124321D+01      0.138325D+01
   yx         0.000000D+00      0.000000D+00      0.000000D+00
   yy         0.838960D+01      0.124321D+01      0.138326D+01
   zx         0.000000D+00      0.000000D+00      0.000000D+00
   zy        -0.183886D-03     -0.272491D-04     -0.303187D-04
   zz         0.347018D+02      0.514227D+01      0.572155D+01

 First dipole hyperpolarizability, Beta (dipole orientation).
 ||, _|_  parallel and perpendicular components, (z) with respect to z axis,
 vector components x,y,z.  Values do not include the 1/n! factor of 1/2.
 (esu units = statvolt**-1 cm**4 , SI units = C**3 m**3 J**-2)
 Beta(0;0,0):
               (au)            (10**-30 esu)      (10**-50 SI)
   || (z)     0.559183D+03      0.483090D+01      0.179294D+01
   _|_(z)     0.186394D+03      0.161030D+01      0.597647D+00
   x         -0.777237D-04     -0.671472D-06     -0.249210D-06
   y         -0.362183D-02     -0.312897D-04     -0.116129D-04
   z          0.279591D+04      0.241545D+02      0.896471D+01
   ||         0.559183D+03      0.483090D+01      0.179294D+01
   xxx       -0.329435D+01     -0.284606D-01     -0.105629D-01
   xxy       -0.196884D+02     -0.170093D+00     -0.631283D-01
   yxy        0.329436D+01      0.284607D-01      0.105629D-01
   yyy        0.196892D+02      0.170100D+00      0.631308D-01
   xxz       -0.160555D+02     -0.138707D+00     -0.514798D-01
   yxz        0.388550D-04      0.335677D-06      0.124583D-06
   yyz       -0.160550D+02     -0.138703D+00     -0.514782D-01
   zxz       -0.397932D-04     -0.343782D-06     -0.127591D-06
   zyz       -0.200722D-02     -0.173408D-04     -0.643586D-05
   zzz        0.964082D+03      0.832891D+01      0.309119D+01

 ----------------------------------------------------------------------
 1\1\GINC-HOLY2A03201\Freq\RAM1\ZDO\C1H3Cl2(1-)\ROOT\06-Nov-2017\0\\#P 
 Geom=AllCheck Guess=TCheck SCRF=Check GenChk RAM1/ZDO Freq\\MeCl post\
 \-1,1\C,0.3714979678,0.0000069094,0.0000001205\H,0.036308112,-0.578555
 4835,-0.8852724035\H,0.0363087201,-0.4773762046,0.9436884416\H,0.03632
 37543,1.055961294,-0.0584158364\Cl,2.1556483439,-0.0000083359,0.000000
 4236\Cl,-2.4994678981,-0.0000031794,0.0000002542\\Version=ES64L-G16Rev
 A.03\State=1-A\HF=-0.1038987\RMSD=2.984e-10\RMSF=7.575e-05\ZeroPoint=0
 .0370636\Thermal=0.0423347\Dipole=3.3297718,0.0000066,0.\DipoleDeriv=1
 .5774794,-0.0000118,0.0000002,-0.0000109,0.0021995,-0.0000002,0.000000
 2,-0.0000002,0.002197,0.0150145,0.0540258,0.0826643,0.0319068,0.081484
 4,-0.0022838,0.0488187,-0.0022844,0.0794826,0.0150142,0.0445779,-0.088
 119,0.0263272,0.0819608,0.0020088,-0.0520401,0.0020094,0.079006,0.0150
 065,-0.0985988,0.0054546,-0.0582286,0.0780019,0.0002752,0.0032213,0.00
 02751,0.0829603,-1.2587366,0.0000067,-0.0000001,0.0000074,-0.3074247,0
 .,-0.0000001,0.,-0.3074244,-1.3637775,0.0000003,0.,-0.0000008,-0.93622
 16,0.,0.,0.,-0.9362211\Polar=34.7017589,-0.0001313,8.389602,0.0000027,
 -0.0000018,8.3895757\HyperPolar=964.0816376,-0.0000179,-16.0550494,19.
 6891308,0.0000225,-0.0000326,-3.2944789,-16.0554909,-19.6884591,3.2944
 662\PG=C01 [X(C1H3Cl2)]\NImag=0\\0.27741730,0.00000194,0.50596114,-0.0
 0000004,-0.00000002,0.50596082,-0.04956159,-0.03946419,-0.06038506,0.0
 6723423,-0.04115974,-0.11198608,-0.10990142,0.04540190,0.12495416,-0.0
 6297945,-0.10990144,-0.20832380,0.06947061,0.12841954,0.23752454,-0.04
 956152,-0.03256262,0.06436952,0.00637595,0.00158775,-0.00426140,0.0672
 3415,-0.03396165,-0.08906108,0.09666555,0.00204811,0.00770426,-0.01031
 494,0.03746192,0.09816636,0.06713510,0.09666557,-0.23124888,0.00406024
 ,0.00614158,-0.02990005,-0.07405458,-0.11295346,0.26431243,-0.04955978
 ,0.07202392,-0.00398440,0.00637589,-0.00454052,-0.00025646,0.00637589,
 -0.00448451,0.00075573,0.06723212,0.07511832,-0.27941901,0.01323589,0.
 00289629,-0.02230607,-0.00701148,0.00249196,-0.01869183,0.00909815,-0.
 08286076,0.32059900,-0.00415559,0.01323588,-0.04089313,0.00350549,-0.0
 2346813,0.00011032,-0.00380358,0.02555481,-0.00350391,0.00458390,-0.01
 546609,0.04188220,-0.13435115,0.00000105,-0.00000002,-0.02746921,-0.00
 191653,-0.00293291,-0.02746920,-0.00158133,0.00312643,-0.02746898,0.00
 349869,-0.00019354,0.22741509,0.00000104,-0.02571748,0.,-0.01064520,0.
 00211910,-0.00099101,-0.00878353,0.00232580,0.00087165,0.01942955,0.00
 060895,0.00011936,-0.00000189,0.01971204,-0.00000002,0.,-0.02571746,-0
 .01628879,-0.00099088,0.00125024,0.01736362,0.00087152,0.00104352,-0.0
 0107485,0.00011937,0.00276007,0.00000004,0.,0.01971200,0.00561679,-0.0
 0000008,0.,-0.00295526,0.00062713,0.00095959,-0.00295526,0.00051746,-0
 .00102291,-0.00295516,-0.00114448,0.00006331,-0.01065656,0.00000001,0.
 ,0.01390543,0.00000019,0.00022245,0.,-0.00023688,-0.00048536,-0.000200
 66,-0.00019545,-0.00044350,0.00017649,0.00043224,-0.00079101,0.0000241
 6,-0.00000006,0.00095159,0.,-0.00000005,0.00054585,0.,0.,0.00022247,-0
 .00036243,-0.00020067,-0.00066126,0.00038634,0.00017651,-0.00070312,-0
 .00002391,0.00002416,-0.00035554,0.,0.,0.00095161,0.,0.,0.00054585\\0.
 00016819,0.,0.,0.00001017,-0.00004107,-0.00006281,0.00001017,-0.000033
 89,0.00006696,0.00001027,0.00007498,-0.00000415,-0.00023727,0.,0.,0.00
 003846,-0.00000004,0.\\\@


 ACCORDING TO HEN3RY, LIFE IS MUCH LIKE A SEWER........
 YOU GET OUT OF IT JUST WHAT YOU PUT INTO IT...........
                         TOM LEHRER - (THE 3 IS SILENT)
 Job cpu time:       0 days  0 hours  0 minutes  2.2 seconds.
 Elapsed time:       0 days  0 hours  0 minutes  2.5 seconds.
 File lengths (MBytes):  RWF=      6 Int=      0 D2E=      0 Chk=      2 Scr=      1
 Normal termination of Gaussian 16 at Mon Nov  6 15:52:22 2017.
