 Entering Gaussian System, Link 0=g16
 Input=Cl_isolated.gjf
 Output=Cl_isolated.out
 Initial command:
 /n/sw/g16_nehalem/g16/l1.exe "/scratch/dhuang9_Cl_isolated/Gau-46400.inp" -scrdir="/scratch/dhuang9_Cl_isolated/"
 Entering Link 1 = /n/sw/g16_nehalem/g16/l1.exe PID=     46409.
  
 Copyright (c) 1988,1990,1992,1993,1995,1998,2003,2009,2016,
            Gaussian, Inc.  All Rights Reserved.
  
 This is part of the Gaussian(R) 16 program.  It is based on
 the Gaussian(R) 09 system (copyright 2009, Gaussian, Inc.),
 the Gaussian(R) 03 system (copyright 2003, Gaussian, Inc.),
 the Gaussian(R) 98 system (copyright 1998, Gaussian, Inc.),
 the Gaussian(R) 94 system (copyright 1995, Gaussian, Inc.),
 the Gaussian 92(TM) system (copyright 1992, Gaussian, Inc.),
 the Gaussian 90(TM) system (copyright 1990, Gaussian, Inc.),
 the Gaussian 88(TM) system (copyright 1988, Gaussian, Inc.),
 the Gaussian 86(TM) system (copyright 1986, Carnegie Mellon
 University), and the Gaussian 82(TM) system (copyright 1983,
 Carnegie Mellon University). Gaussian is a federally registered
 trademark of Gaussian, Inc.
  
 This software contains proprietary and confidential information,
 including trade secrets, belonging to Gaussian, Inc.
  
 This software is provided under written license and may be
 used, copied, transmitted, or stored only in accord with that
 written license.
  
 The following legend is applicable only to US Government
 contracts under FAR:
  
                    RESTRICTED RIGHTS LEGEND
  
 Use, reproduction and disclosure by the US Government is
 subject to restrictions as set forth in subparagraphs (a)
 and (c) of the Commercial Computer Software - Restricted
 Rights clause in FAR 52.227-19.
  
 Gaussian, Inc.
 340 Quinnipiac St., Bldg. 40, Wallingford CT 06492
  
  
 ---------------------------------------------------------------
 Warning -- This program may not be used in any manner that
 competes with the business of Gaussian, Inc. or will provide
 assistance to any competitor of Gaussian, Inc.  The licensee
 of this program is prohibited from giving any competitor of
 Gaussian, Inc. access to this program.  By using this program,
 the user acknowledges that Gaussian, Inc. is engaged in the
 business of creating and licensing software in the field of
 computational chemistry and represents and warrants to the
 licensee that it is not a competitor of Gaussian, Inc. and that
 it will not use this program in any manner prohibited above.
 ---------------------------------------------------------------
  

 Cite this work as:
 Gaussian 16, Revision A.03,
 M. J. Frisch, G. W. Trucks, H. B. Schlegel, G. E. Scuseria, 
 M. A. Robb, J. R. Cheeseman, G. Scalmani, V. Barone, 
 G. A. Petersson, H. Nakatsuji, X. Li, M. Caricato, A. V. Marenich, 
 J. Bloino, B. G. Janesko, R. Gomperts, B. Mennucci, H. P. Hratchian, 
 J. V. Ortiz, A. F. Izmaylov, J. L. Sonnenberg, D. Williams-Young, 
 F. Ding, F. Lipparini, F. Egidi, J. Goings, B. Peng, A. Petrone, 
 T. Henderson, D. Ranasinghe, V. G. Zakrzewski, J. Gao, N. Rega, 
 G. Zheng, W. Liang, M. Hada, M. Ehara, K. Toyota, R. Fukuda, 
 J. Hasegawa, M. Ishida, T. Nakajima, Y. Honda, O. Kitao, H. Nakai, 
 T. Vreven, K. Throssell, J. A. Montgomery, Jr., J. E. Peralta, 
 F. Ogliaro, M. J. Bearpark, J. J. Heyd, E. N. Brothers, K. N. Kudin, 
 V. N. Staroverov, T. A. Keith, R. Kobayashi, J. Normand, 
 K. Raghavachari, A. P. Rendell, J. C. Burant, S. S. Iyengar, 
 J. Tomasi, M. Cossi, J. M. Millam, M. Klene, C. Adamo, R. Cammi, 
 J. W. Ochterski, R. L. Martin, K. Morokuma, O. Farkas, 
 J. B. Foresman, and D. J. Fox, Gaussian, Inc., Wallingford CT, 2016.
 
 ******************************************
 Gaussian 16:  ES64L-G16RevA.03 25-Dec-2016
                 6-Nov-2017 
 ******************************************
 %mem=1GB
 -----------------------
 #p am1 opt freq=noraman
 -----------------------
 1/18=20,19=15,26=1,38=1/1,3;
 2/9=110,12=2,17=6,18=5,40=1/2;
 3/5=2,25=1,41=700000,71=1/1,2,3;
 4/35=1/1;
 5/5=2,35=1,38=5/2;
 6/7=2,8=2,9=2,10=2,28=1/1;
 7//1,2,3,16;
 1/18=20,19=15,26=1/3(2);
 2/9=110/2;
 99//99;
 2/9=110/2;
 3/5=2,25=1,41=700000,71=1,135=20/1,2,3;
 4/5=5,16=3,35=1/1;
 5/5=2,35=1,38=5/2;
 7//1,2,3,16;
 1/18=20,19=15,26=1/3(-5);
 2/9=110/2;
 6/7=2,8=2,9=2,10=2,19=2,28=1/1;
 99/9=1/99;
 Leave Link    1 at Mon Nov  6 14:55:27 2017, MaxMem=   134217728 cpu:               0.1 elap:               0.2
 (Enter /n/sw/g16_nehalem/g16/l101.exe)
 -----------
 isolated Cl
 -----------
 Symbolic Z-matrix:
 Charge = -1 Multiplicity = 1
 Cl                   -0.51613   0.6129    0. 
 
 ITRead=  0
 MicOpt= -1
 NAtoms=      1 NQM=        1 NQMF=       0 NMMI=      0 NMMIF=      0
                NMic=       0 NMicF=      0.
                    Isotopes and Nuclear Properties:
 (Nuclear quadrupole moments (NQMom) in fm**2, nuclear magnetic moments (NMagM)
  in nuclear magnetons)

  Atom         1
 IAtWgt=          35
 AtmWgt=  34.9688527
 NucSpn=           3
 AtZEff=   0.0000000
 NQMom=   -8.1650000
 NMagM=    0.8218740
 AtZNuc=  17.0000000
 Leave Link  101 at Mon Nov  6 14:55:28 2017, MaxMem=   134217728 cpu:               0.7 elap:               0.7
 (Enter /n/sw/g16_nehalem/g16/l103.exe)

 GradGradGradGradGradGradGradGradGradGradGradGradGradGradGradGradGradGrad
 Berny optimization.
 Initialization pass.
 No Z-matrix variables, so optimization will use Cartesian coordinates.
 Trust Radius=1.00D-01 FncErr=1.00D-07 GrdErr=1.00D-07 EigMax=2.50D+02 EigMin=1.00D-04
 Number of steps in this run=     20 maximum allowed number of steps=    100.
 GradGradGradGradGradGradGradGradGradGradGradGradGradGradGradGradGradGrad

 Leave Link  103 at Mon Nov  6 14:55:28 2017, MaxMem=   134217728 cpu:               0.1 elap:               0.1
 (Enter /n/sw/g16_nehalem/g16/l202.exe)
                          Input orientation:                          
 ---------------------------------------------------------------------
 Center     Atomic      Atomic             Coordinates (Angstroms)
 Number     Number       Type             X           Y           Z
 ---------------------------------------------------------------------
      1         17           0       -0.516129    0.612903    0.000000
 ---------------------------------------------------------------------
 Stoichiometry    Cl(1-)
 Framework group  OH[O(Cl)]
 Deg. of freedom     0
 Full point group                 OH      NOp  48
 Largest Abelian subgroup         D2H     NOp   8
 Largest concise Abelian subgroup C1      NOp   1
                         Standard orientation:                         
 ---------------------------------------------------------------------
 Center     Atomic      Atomic             Coordinates (Angstroms)
 Number     Number       Type             X           Y           Z
 ---------------------------------------------------------------------
      1         17           0        0.000000    0.000000    0.000000
 ---------------------------------------------------------------------
 Leave Link  202 at Mon Nov  6 14:55:28 2017, MaxMem=   134217728 cpu:               0.0 elap:               0.1
 (Enter /n/sw/g16_nehalem/g16/l301.exe)
 Standard basis: VSTO-6G (5D, 7F)
 Ernie: Thresh=  0.10000D-02 Tol=  0.10000D-05 Strict=F.
  NNHCO=     0 NNPyr=     0 NCTC=     0               EPep=         0.000000000
    EC=         0.000000000  ECS=         0.000000000   EG=         0.000000000
   EHC=         0.000000000  EAt=       -13.678040664  AtH=         0.046198506
 EPDDG=         0.000000000  ECC=         0.000000000 EAtT=        13.724239170
 There are     1 symmetry adapted cartesian basis functions of AG  symmetry.
 There are     0 symmetry adapted cartesian basis functions of B1G symmetry.
 There are     0 symmetry adapted cartesian basis functions of B2G symmetry.
 There are     0 symmetry adapted cartesian basis functions of B3G symmetry.
 There are     0 symmetry adapted cartesian basis functions of AU  symmetry.
 There are     1 symmetry adapted cartesian basis functions of B1U symmetry.
 There are     1 symmetry adapted cartesian basis functions of B2U symmetry.
 There are     1 symmetry adapted cartesian basis functions of B3U symmetry.
 There are     1 symmetry adapted basis functions of AG  symmetry.
 There are     0 symmetry adapted basis functions of B1G symmetry.
 There are     0 symmetry adapted basis functions of B2G symmetry.
 There are     0 symmetry adapted basis functions of B3G symmetry.
 There are     0 symmetry adapted basis functions of AU  symmetry.
 There are     1 symmetry adapted basis functions of B1U symmetry.
 There are     1 symmetry adapted basis functions of B2U symmetry.
 There are     1 symmetry adapted basis functions of B3U symmetry.
     4 basis functions,    24 primitive gaussians,     4 cartesian basis functions
     4 alpha electrons        4 beta electrons
       nuclear repulsion energy        13.7242391698 Hartrees.
 IExCor=    0 DFT=F Ex=HF Corr=None ExCW=0 ScaHFX=  1.000000
 ScaDFX=  1.000000  1.000000  1.000000  1.000000 ScalE2=  1.000000  1.000000
 IRadAn=      5 IRanWt=     -1 IRanGd=            0 ICorTp=0 IEmpDi=  4
 Integral buffers will be    131072 words long.
 Regular integral format.
 Two-electron integral symmetry is turned off.
 Leave Link  301 at Mon Nov  6 14:55:29 2017, MaxMem=   134217728 cpu:               0.2 elap:               0.2
 (Enter /n/sw/g16_nehalem/g16/l302.exe)
 Do NDO integrals.
 NPDir=0 NMtPBC=     1 NCelOv=     1 NCel=       1 NClECP=     1 NCelD=      1
         NCelK=      1 NCelE2=     1 NClLst=     1 CellRange=     0.0.
 One-electron integrals computed using PRISM.
 NBasis=     4 RedAO= T EigKep=  1.00D+00  NBF=     1     0     0     0     0     1     1     1
 NBsUse=     4 1.00D-06 EigRej= -1.00D+00 NBFU=     1     0     0     0     0     1     1     1
 Leave Link  302 at Mon Nov  6 14:55:29 2017, MaxMem=   134217728 cpu:               0.3 elap:               0.3
 (Enter /n/sw/g16_nehalem/g16/l303.exe)
 DipDrv:  MaxL=1.
 Leave Link  303 at Mon Nov  6 14:55:29 2017, MaxMem=   134217728 cpu:               0.1 elap:               0.1
 (Enter /n/sw/g16_nehalem/g16/l401.exe)
 Simple Huckel Guess.
 JPrj=0 DoOrth=F DoCkMO=F.
 Initial guess orbital symmetries:
       Occupied  (A1G) (T1U) (T1U) (T1U)
 The electronic state of the initial guess is 1-A1G.
 Leave Link  401 at Mon Nov  6 14:55:30 2017, MaxMem=   134217728 cpu:               0.1 elap:               0.3
 (Enter /n/sw/g16_nehalem/g16/l502.exe)
 Keep J ints in memory in canonical form, NReq=859057.
 FoFCou: FMM=F IPFlag=           0 FMFlag=           0 FMFlg1=           0
         NFxFlg=           0 DoJE=F BraDBF=F KetDBF=F FulRan=T
         wScrn=  0.000000 ICntrl=       600 IOpCl=  2 I1Cent=           0 NGrid=           0
         NMat0=    1 NMatS0=     10 NMatT0=    0 NMatD0=    1 NMtDS0=    0 NMtDT0=    0
 Symmetry not used in FoFCou.
 Two-electron integral symmetry not used.
 Closed shell SCF:
 Using DIIS extrapolation, IDIIS=  1040.
 Overlap will be assumed to be unity.
 NGot=   134217728 LenX=   134157476 LenY=   134156594
 Requested convergence on RMS density matrix=1.00D-08 within 128 cycles.
 Requested convergence on MAX density matrix=1.00D-06.
 Requested convergence on             energy=1.00D-06.
 No special actions if energy rises.

 Cycle   1  Pass 1  IDiag  1:
 E=-0.600109723407147E-01
 DIIS: error= 0.00D+00 at cycle   1 NSaved=   1.
 NSaved= 1 IEnMin= 1 EnMin=-0.600109723407147E-01 IErMin= 1 ErrMin= 0.00D+00
 ErrMax= 0.00D+00  0.00D+00 EMaxC= 1.00D-01 BMatC= 0.00D+00 BMatP= 0.00D+00
 IDIUse=1 WtCom= 1.00D+00 WtEn= 0.00D+00
 Coeff-Com:  0.100D+01
 Coeff:      0.100D+01
 RMSDP=0.00D+00 MaxDP=0.00D+00              OVMax= 0.00D+00

 Cycle   2  Pass 2  IDiag  1:
 SCF Done:  E(RAM1) = -0.600109723407E-01 A.U. after    2 cycles
            NFock=  1  Conv=0.00D+00     -V/T= 0.9976
 KE=-2.510230689060D+01 PE= 0.000000000000D+00 EE= 1.131805674845D+01
 Leave Link  502 at Mon Nov  6 14:55:30 2017, MaxMem=   134217728 cpu:               0.1 elap:               0.2
 (Enter /n/sw/g16_nehalem/g16/l601.exe)
 Copying SCF densities to generalized density rwf, IOpCl= 0 IROHF=0.

 **********************************************************************

            Population analysis using the SCF density.

 **********************************************************************

 Orbital symmetries:
       Occupied  (A1G) (T1U) (T1U) (T1U)
 The electronic state is 1-A1G.
 Alpha  occ. eigenvalues --   -0.91447  -0.10621  -0.10621  -0.10621
          Condensed to atoms (all electrons):
               1
     1  Cl   8.000000
 Mulliken charges:
               1
     1  Cl  -1.000000
 Sum of Mulliken charges =  -1.00000
 Mulliken charges with hydrogens summed into heavy atoms:
               1
     1  Cl  -1.000000
 Charge=             -1.0000 electrons
 Dipole moment (field-independent basis, Debye):
    X=              0.0000    Y=              0.0000    Z=              0.0000  Tot=              0.0000
 N-N= 1.372423916981D+01 E-N= 0.000000000000D+00  KE=-2.510230689060D+01
 Symmetry AG   KE=-8.203474234580D+00
 Symmetry B1G  KE= 0.000000000000D+00
 Symmetry B2G  KE= 0.000000000000D+00
 Symmetry B3G  KE= 0.000000000000D+00
 Symmetry AU   KE= 0.000000000000D+00
 Symmetry B1U  KE=-5.632944218674D+00
 Symmetry B2U  KE=-5.632944218674D+00
 Symmetry B3U  KE=-5.632944218674D+00
 Leave Link  601 at Mon Nov  6 14:55:30 2017, MaxMem=   134217728 cpu:               0.1 elap:               0.2
 (Enter /n/sw/g16_nehalem/g16/l701.exe)
 ... and contract with generalized density number  0.
 Compute integral first derivatives.
 Leave Link  701 at Mon Nov  6 14:55:31 2017, MaxMem=   134217728 cpu:               0.2 elap:               0.2
 (Enter /n/sw/g16_nehalem/g16/l702.exe)
 L702 exits ... SP integral derivatives will be done elsewhere.
 Leave Link  702 at Mon Nov  6 14:55:31 2017, MaxMem=   134217728 cpu:               0.1 elap:               0.1
 (Enter /n/sw/g16_nehalem/g16/l703.exe)
 Integral derivatives from FoFJK, PRISM(SPDF).
 Compute integral first derivatives, UseDBF=F ICtDFT=           0.
 Calling FoFJK, ICntrl=      2127 FMM=F ISym2X=1 I1Cent= 0 IOpClX= 0 NMat=1 NMatS=1 NMatT=0.
 FoFJK:  IHMeth= 8 ICntrl=    2127 DoSepK=F KAlg= 0 I1Cent=           0 FoldK=F
 IRaf=         0 NMat=       1 IRICut=       1 DoRegI=T DoRafI=F ISym2E= 1 IDoP0=3 IntGTp=3.
 FoFCou: FMM=F IPFlag=           0 FMFlag=      100000 FMFlg1=         800
         NFxFlg=           0 DoJE=F BraDBF=F KetDBF=F FulRan=T
         wScrn=  0.000000 ICntrl=      2127 IOpCl=  0 I1Cent=           0 NGrid=           0
         NMat0=    1 NMatS0=      1 NMatT0=    0 NMatD0=    1 NMtDS0=    0 NMtDT0=    0
 Petite list used in FoFCou.
 Leave Link  703 at Mon Nov  6 14:55:31 2017, MaxMem=   134217728 cpu:               0.1 elap:               0.2
 (Enter /n/sw/g16_nehalem/g16/l716.exe)
 Dipole        = 0.00000000D+00 0.00000000D+00 0.00000000D+00
 ***** Axes restored to original set *****
 -------------------------------------------------------------------
 Center     Atomic                   Forces (Hartrees/Bohr)
 Number     Number              X              Y              Z
 -------------------------------------------------------------------
      1       17           0.000000000    0.000000000    0.000000000
 -------------------------------------------------------------------
 Cartesian Forces:  Max     0.000000000 RMS     0.000000000
 Z-matrix is all fixed cartesians, so copy forces.
 Leave Link  716 at Mon Nov  6 14:55:32 2017, MaxMem=   134217728 cpu:               0.1 elap:               0.1
 (Enter /n/sw/g16_nehalem/g16/l103.exe)

 GradGradGradGradGradGradGradGradGradGradGradGradGradGradGradGradGradGrad
 Berny optimization.
 Search for a local minimum.
 Step number   1 out of a maximum of   20
 All quantities printed in internal units (Hartrees-Bohrs-Radians)
 RMS Force = .00000D+00 SwitMx=.10000D-02 MixMth= 2
 Mixed Optimization -- En-DIIS/RFO-DIIS
 Second derivative matrix not updated -- first step.
 The second derivative matrix:
                          X1        Y1        Z1
           X1           0.00000
           Y1           0.00000   0.00000
           Z1           0.00000   0.00000   0.00000
 ITU=  0
     Eigenvalues --- 
 RFO step:  Lambda=-9.75342534D-01 EMin=-9.75342531D-01
 Mixed    0 eigenvectors in step.  Raw Step.Grad=  0.00D+00.
 RFO eigenvector is Hessian eigenvector with negative curvature.
 Taking step of  0.00D+00 in eigenvector direction(s).  Step.Grad=  0.00D+00.
 ClnCor:  largest displacement from symmetrization is 0.00D+00 for atom     0.
 Linear search not attempted -- first point.
 ClnCor:  largest displacement from symmetrization is 0.00D+00 for atom     0.
 B after Tr=     0.000000    0.000000    0.000000
         Rot=    1.000000    0.000000    0.000000    0.000000 Ang=   0.00 deg.
 Variable       Old X    -DE/DX   Delta X   Delta X   Delta X     New X
                                 (Linear)    (Quad)   (Total)
    X1       -0.97534   0.00000   0.00000   0.00000   0.00000  -0.97534
    Y1        1.15822   0.00000   0.00000   0.00000   0.00000   1.15822
    Z1        0.00000   0.00000   0.00000   0.00000   0.00000   0.00000
         Item               Value     Threshold  Converged?
 Maximum Force            0.000000     0.000450     YES
 RMS     Force            0.000000     0.000300     YES
 Maximum Displacement     0.000000     0.001800     YES
 RMS     Displacement     0.000000     0.001200     YES
 Predicted change in Energy= 0.000000D+00
 Lowest energy point so far.  Saving SCF results.
 GradGradGradGradGradGradGradGradGradGradGradGradGradGradGradGradGradGrad

 Leave Link  103 at Mon Nov  6 14:55:32 2017, MaxMem=   134217728 cpu:               0.0 elap:               0.1
 (Enter /n/sw/g16_nehalem/g16/l202.exe)
                          Input orientation:                          
 ---------------------------------------------------------------------
 Center     Atomic      Atomic             Coordinates (Angstroms)
 Number     Number       Type             X           Y           Z
 ---------------------------------------------------------------------
      1         17           0       -0.516129    0.612903    0.000000
 ---------------------------------------------------------------------
 Stoichiometry    Cl(1-)
 Framework group  OH[O(Cl)]
 Deg. of freedom     0
 Full point group                 OH      NOp  48
 RotChk:  IX=0 Diff= 0.00D+00
 Largest Abelian subgroup         D2H     NOp   8
 Largest concise Abelian subgroup C1      NOp   1
                         Standard orientation:                         
 ---------------------------------------------------------------------
 Center     Atomic      Atomic             Coordinates (Angstroms)
 Number     Number       Type             X           Y           Z
 ---------------------------------------------------------------------
      1         17           0        0.000000    0.000000    0.000000
 ---------------------------------------------------------------------
 Leave Link  202 at Mon Nov  6 14:55:32 2017, MaxMem=   134217728 cpu:               0.0 elap:               0.0
 (Enter /n/sw/g16_nehalem/g16/l301.exe)
 Standard basis: VSTO-6G (5D, 7F)
 Ernie: Thresh=  0.10000D-02 Tol=  0.10000D-05 Strict=F.
  NNHCO=     0 NNPyr=     0 NCTC=     0               EPep=         0.000000000
    EC=         0.000000000  ECS=         0.000000000   EG=         0.000000000
   EHC=         0.000000000  EAt=       -13.678040664  AtH=         0.046198506
 EPDDG=         0.000000000  ECC=         0.000000000 EAtT=        13.724239170
 There are     1 symmetry adapted cartesian basis functions of AG  symmetry.
 There are     0 symmetry adapted cartesian basis functions of B1G symmetry.
 There are     0 symmetry adapted cartesian basis functions of B2G symmetry.
 There are     0 symmetry adapted cartesian basis functions of B3G symmetry.
 There are     0 symmetry adapted cartesian basis functions of AU  symmetry.
 There are     1 symmetry adapted cartesian basis functions of B1U symmetry.
 There are     1 symmetry adapted cartesian basis functions of B2U symmetry.
 There are     1 symmetry adapted cartesian basis functions of B3U symmetry.
 There are     1 symmetry adapted basis functions of AG  symmetry.
 There are     0 symmetry adapted basis functions of B1G symmetry.
 There are     0 symmetry adapted basis functions of B2G symmetry.
 There are     0 symmetry adapted basis functions of B3G symmetry.
 There are     0 symmetry adapted basis functions of AU  symmetry.
 There are     1 symmetry adapted basis functions of B1U symmetry.
 There are     1 symmetry adapted basis functions of B2U symmetry.
 There are     1 symmetry adapted basis functions of B3U symmetry.
     4 basis functions,    24 primitive gaussians,     4 cartesian basis functions
     4 alpha electrons        4 beta electrons
       nuclear repulsion energy        13.7242391698 Hartrees.
 IExCor=    0 DFT=F Ex=HF Corr=None ExCW=0 ScaHFX=  1.000000
 ScaDFX=  1.000000  1.000000  1.000000  1.000000 ScalE2=  1.000000  1.000000
 IRadAn=      5 IRanWt=     -1 IRanGd=            0 ICorTp=0 IEmpDi=  4
 Integral buffers will be    131072 words long.
 Regular integral format.
 Two-electron integral symmetry is turned off.
 Leave Link  301 at Mon Nov  6 14:55:32 2017, MaxMem=   134217728 cpu:               0.2 elap:               0.2
 (Enter /n/sw/g16_nehalem/g16/l302.exe)
 Do NDO integrals.
 NPDir=0 NMtPBC=     1 NCelOv=     1 NCel=       1 NClECP=     1 NCelD=      1
         NCelK=      1 NCelE2=     1 NClLst=     1 CellRange=     0.0.
 One-electron integrals computed using PRISM.
 NBasis=     4 RedAO= T EigKep=  1.00D+00  NBF=     1     0     0     0     0     1     1     1
 NBsUse=     4 1.00D-06 EigRej= -1.00D+00 NBFU=     1     0     0     0     0     1     1     1
 Leave Link  302 at Mon Nov  6 14:55:32 2017, MaxMem=   134217728 cpu:               0.3 elap:               0.4
 (Enter /n/sw/g16_nehalem/g16/l303.exe)
 DipDrv:  MaxL=1.
 Leave Link  303 at Mon Nov  6 14:55:32 2017, MaxMem=   134217728 cpu:               0.1 elap:               0.1
 (Enter /n/sw/g16_nehalem/g16/l401.exe)
 Initial guess from the checkpoint file:  "/scratch/dhuang9_Cl_isolated/Gau-46409.chk"
 B after Tr=     0.000000    0.000000    0.000000
         Rot=    1.000000    0.000000    0.000000    0.000000 Ang=   0.00 deg.
 Guess basis will be translated and rotated to current coordinates.
 JPrj=0 DoOrth=T DoCkMO=T.
 Initial guess orbital symmetries:
       Occupied  (A1G) (T1U) (T1U) (T1U)
 The electronic state of the initial guess is 1-A1G.
 Leave Link  401 at Mon Nov  6 14:55:33 2017, MaxMem=   134217728 cpu:               0.3 elap:               0.3
 (Enter /n/sw/g16_nehalem/g16/l502.exe)
 Keep J ints in memory in canonical form, NReq=859057.
 FoFCou: FMM=F IPFlag=           0 FMFlag=           0 FMFlg1=           0
         NFxFlg=           0 DoJE=F BraDBF=F KetDBF=F FulRan=T
         wScrn=  0.000000 ICntrl=       600 IOpCl=  2 I1Cent=           0 NGrid=           0
         NMat0=    1 NMatS0=     10 NMatT0=    0 NMatD0=    1 NMtDS0=    0 NMtDT0=    0
 Symmetry not used in FoFCou.
 Two-electron integral symmetry not used.
 Closed shell SCF:
 Using DIIS extrapolation, IDIIS=  1040.
 Overlap will be assumed to be unity.
 NGot=   134217728 LenX=   134157476 LenY=   134156594
 Requested convergence on RMS density matrix=1.00D-08 within 128 cycles.
 Requested convergence on MAX density matrix=1.00D-06.
 Requested convergence on             energy=1.00D-06.
 No special actions if energy rises.

 Cycle   1  Pass 1  IDiag  1:
 E=-0.600109723407147E-01
 DIIS: error= 0.00D+00 at cycle   1 NSaved=   1.
 NSaved= 1 IEnMin= 1 EnMin=-0.600109723407147E-01 IErMin= 1 ErrMin= 0.00D+00
 ErrMax= 0.00D+00  0.00D+00 EMaxC= 1.00D-01 BMatC= 0.00D+00 BMatP= 0.00D+00
 IDIUse=1 WtCom= 1.00D+00 WtEn= 0.00D+00
 Coeff-Com:  0.100D+01
 Coeff:      0.100D+01
 RMSDP=0.00D+00 MaxDP=0.00D+00              OVMax= 0.00D+00

 Cycle   2  Pass 2  IDiag  1:
 SCF Done:  E(RAM1) = -0.600109723407E-01 A.U. after    2 cycles
            NFock=  1  Conv=0.00D+00     -V/T= 0.9976
 KE=-2.510230689060D+01 PE= 0.000000000000D+00 EE= 1.131805674845D+01
 Leave Link  502 at Mon Nov  6 14:55:33 2017, MaxMem=   134217728 cpu:               0.1 elap:               0.1
 (Enter /n/sw/g16_nehalem/g16/l701.exe)
 ... and contract with generalized density number  0.
 Compute integral first derivatives.
 Leave Link  701 at Mon Nov  6 14:55:33 2017, MaxMem=   134217728 cpu:               0.2 elap:               0.2
 (Enter /n/sw/g16_nehalem/g16/l702.exe)
 L702 exits ... SP integral derivatives will be done elsewhere.
 Leave Link  702 at Mon Nov  6 14:55:33 2017, MaxMem=   134217728 cpu:               0.1 elap:               0.1
 (Enter /n/sw/g16_nehalem/g16/l703.exe)
 Integral derivatives from FoFJK, PRISM(SPDF).
 Compute integral first derivatives, UseDBF=F ICtDFT=           0.
 Calling FoFJK, ICntrl=      2127 FMM=F ISym2X=1 I1Cent= 0 IOpClX= 0 NMat=1 NMatS=1 NMatT=0.
 FoFJK:  IHMeth= 8 ICntrl=    2127 DoSepK=F KAlg= 0 I1Cent=           0 FoldK=F
 IRaf=         0 NMat=       1 IRICut=       1 DoRegI=T DoRafI=F ISym2E= 1 IDoP0=3 IntGTp=3.
 FoFCou: FMM=F IPFlag=           0 FMFlag=      100000 FMFlg1=         800
         NFxFlg=           0 DoJE=F BraDBF=F KetDBF=F FulRan=T
         wScrn=  0.000000 ICntrl=      2127 IOpCl=  0 I1Cent=           0 NGrid=           0
         NMat0=    1 NMatS0=      1 NMatT0=    0 NMatD0=    1 NMtDS0=    0 NMtDT0=    0
 Petite list used in FoFCou.
 Leave Link  703 at Mon Nov  6 14:55:33 2017, MaxMem=   134217728 cpu:               0.1 elap:               0.1
 (Enter /n/sw/g16_nehalem/g16/l716.exe)
 Dipole        = 0.00000000D+00 0.00000000D+00 0.00000000D+00
 ***** Axes restored to original set *****
 -------------------------------------------------------------------
 Center     Atomic                   Forces (Hartrees/Bohr)
 Number     Number              X              Y              Z
 -------------------------------------------------------------------
      1       17           0.000000000    0.000000000    0.000000000
 -------------------------------------------------------------------
 Cartesian Forces:  Max     0.000000000 RMS     0.000000000
 Leave Link  716 at Mon Nov  6 14:55:33 2017, MaxMem=   134217728 cpu:               0.1 elap:               0.1
 (Enter /n/sw/g16_nehalem/g16/l103.exe)

 GradGradGradGradGradGradGradGradGradGradGradGradGradGradGradGradGradGrad
 Berny optimization.
 Using GEDIIS/GDIIS optimizer.
 Search for a local minimum.
 Step number   2 out of a maximum of   20
 All quantities printed in internal units (Hartrees-Bohrs-Radians)
 RMS Force = .00000D+00 SwitMx=.10000D-02 MixMth= 2
 Mixed Optimization -- En-DIIS/RFO-DIIS
 Swapping is turned off.
 Update second derivatives using D2CorN and points    2
 The second derivative matrix:
                          X1        Y1        Z1
           X1           0.00000
           Y1           0.00000   0.00000
           Z1           0.00000   0.00000   0.00000
 ITU=  0  0
     Eigenvalues --- 
 En-DIIS/RFO-DIIS/Sim-DIIS IScMMF=       -3 using points:     2    1
 RFO step:  Lambda=-5.96046448D-09.
 RFO step:  ModMin= 1 Lambda=-5.96046448D-09 EMin= 9.88131292-324
 Using NR instead of RFO step for point 1.
 RFO step:  ModMin= 1 Lambda=-5.96046448D-09 EMin= 9.88131292-324
 Using NR instead of RFO step for point 2.
 NNeg= 0 NGDIIS= 2 SimSw=  2.50D-03 Rises=F DC=  0.00D+00 SmlDif=  1.00D-05
 NRisDI= 0 DoIntr=F SqrtH=F CThrHd= 10.0 CDAdj=  3.0
 RMS Error=               NaN NUsed= 2 OKEnD=F EnDIS=F
 InvSVX:  RCond= 0.00D+00 Info=           4 Equed=N FErr=  0.00D+00 BErr=  0.00D+00
 DIIS inversion failure, remove point   2.
 Use linear search instead of GDIIS.
 RFO step:  Lambda=-5.96046448D-09 EMin= 9.88131292-324
 ClnCor:  largest displacement from symmetrization is 0.00D+00 for atom     0.
 Linear search not attempted -- rms force is less than FSwtch ( 0.00000).
 ClnCor:  largest displacement from symmetrization is 0.00D+00 for atom     0.
 B after Tr=     0.000000    0.000000    0.000000
         Rot=    1.000000    0.000000    0.000000    0.000000 Ang=   0.00 deg.
 Variable       Old X    -DE/DX   Delta X   Delta X   Delta X     New X
                                 (Linear)    (Quad)   (Total)
    X1       -0.97534   0.00000   0.00000   0.00000   0.00000  -0.97534
    Y1        1.15822   0.00000   0.00000   0.00000   0.00000   1.15822
    Z1        0.00000   0.00000   0.00000   0.00000   0.00000   0.00000
         Item               Value     Threshold  Converged?
 Maximum Force            0.000000     0.000450     YES
 RMS     Force            0.000000     0.000300     YES
 Maximum Displacement     0.000000     0.001800     YES
 RMS     Displacement     0.000000     0.001200     YES
 Predicted change in Energy= 0.000000D+00
 Optimization completed.
    -- Stationary point found.
 Largest change from initial coordinates is atom    0       0.000 Angstoms.
 GradGradGradGradGradGradGradGradGradGradGradGradGradGradGradGradGradGrad

 Leave Link  103 at Mon Nov  6 14:55:34 2017, MaxMem=   134217728 cpu:               0.0 elap:               0.0
 (Enter /n/sw/g16_nehalem/g16/l202.exe)
                          Input orientation:                          
 ---------------------------------------------------------------------
 Center     Atomic      Atomic             Coordinates (Angstroms)
 Number     Number       Type             X           Y           Z
 ---------------------------------------------------------------------
      1         17           0       -0.516129    0.612903    0.000000
 ---------------------------------------------------------------------
 Stoichiometry    Cl(1-)
 Framework group  OH[O(Cl)]
 Deg. of freedom     0
 Full point group                 OH      NOp  48
 RotChk:  IX=0 Diff= 0.00D+00
 Largest Abelian subgroup         D2H     NOp   8
 Largest concise Abelian subgroup C1      NOp   1
                         Standard orientation:                         
 ---------------------------------------------------------------------
 Center     Atomic      Atomic             Coordinates (Angstroms)
 Number     Number       Type             X           Y           Z
 ---------------------------------------------------------------------
      1         17           0        0.000000    0.000000    0.000000
 ---------------------------------------------------------------------
 Leave Link  202 at Mon Nov  6 14:55:34 2017, MaxMem=   134217728 cpu:               0.0 elap:               0.0
 (Enter /n/sw/g16_nehalem/g16/l601.exe)
 Copying SCF densities to generalized density rwf, IOpCl= 0 IROHF=0.

 **********************************************************************

            Population analysis using the SCF density.

 **********************************************************************

 Orbital symmetries:
       Occupied  (A1G) (T1U) (T1U) (T1U)
 The electronic state is 1-A1G.
 Alpha  occ. eigenvalues --   -0.91447  -0.10621  -0.10621  -0.10621
          Condensed to atoms (all electrons):
               1
     1  Cl   8.000000
 Mulliken charges:
               1
     1  Cl  -1.000000
 Sum of Mulliken charges =  -1.00000
 Mulliken charges with hydrogens summed into heavy atoms:
               1
     1  Cl  -1.000000
 Charge=             -1.0000 electrons
 Dipole moment (field-independent basis, Debye):
    X=              0.0000    Y=              0.0000    Z=              0.0000  Tot=              0.0000
 N-N= 1.372423916981D+01 E-N= 0.000000000000D+00  KE=-2.510230689060D+01
 Symmetry AG   KE=-8.203474234580D+00
 Symmetry B1G  KE= 0.000000000000D+00
 Symmetry B2G  KE= 0.000000000000D+00
 Symmetry B3G  KE= 0.000000000000D+00
 Symmetry AU   KE= 0.000000000000D+00
 Symmetry B1U  KE=-5.632944218674D+00
 Symmetry B2U  KE=-5.632944218674D+00
 Symmetry B3U  KE=-5.632944218674D+00
 Leave Link  601 at Mon Nov  6 14:55:34 2017, MaxMem=   134217728 cpu:               0.1 elap:               0.1
 (Enter /n/sw/g16_nehalem/g16/l9999.exe)
 1\1\GINC-HOLYBIGMEM08\FOpt\RAM1\ZDO\Cl1(1-)\ROOT\06-Nov-2017\0\\#p am1
  opt freq=noraman\\isolated Cl\\-1,1\Cl,-0.51612904,0.61290322,0.\\Ver
 sion=ES64L-G16RevA.03\State=1-A1G\HF=-0.060011\RMSD=0.000e+00\RMSF=0.0
 00e+00\Dipole=0.,0.,0.\PG=OH [O(Cl1)]\\@


 THE VALUE OF PHILOSOPHY IS, IN FACT, TO BE SOUGHT LARGELY IN ITS
 VERY UNCERTAINTY.  THE MAN WHO HAS NO TINCTURE OF PHILOSOPHY GOES
 THROUGH LIFE IMPRISONED IN THE PREJUDICES DERIVED FROM COMMON SENSE,
 FROM THE HABITUAL BELIEFS OF HIS AGE OR HIS NATION, AND FROM
 CONVICTIONS WHICH HAVE GROWN UP IN HIS MIND WITHOUT THE CO-OPERATION
 OR CONSENT OF HIS DELIBERATE REASON.  TO SUCH A MAN THE WORLD TENDS
 TO BE DEFINITE, FINITE, OBVIOUS; COMMON OBJECTS ROUSE NO QUESTIONS,
 AND UNFAMILIAR POSSIBILITIES ARE CONTEMPTUOUSLY REJECTED.

                             -- BERTRAND RUSSELL
 Leave Link 9999 at Mon Nov  6 14:55:34 2017, MaxMem=   134217728 cpu:               0.1 elap:               0.2
 Job cpu time:       0 days  0 hours  0 minutes  4.6 seconds.
 Elapsed time:       0 days  0 hours  0 minutes  5.0 seconds.
 File lengths (MBytes):  RWF=      6 Int=      0 D2E=      0 Chk=      2 Scr=      1
 Normal termination of Gaussian 16 at Mon Nov  6 14:55:34 2017.
 (Enter /n/sw/g16_nehalem/g16/l1.exe)
 Link1:  Proceeding to internal job step number  2.
 -------------------------------------------------------------
 #P Geom=AllCheck Guess=TCheck SCRF=Check GenChk RAM1/ZDO Freq
 -------------------------------------------------------------
 1/10=4,29=7,30=1,38=1,40=1/1,3;
 2/12=2,40=1/2;
 3/5=2,14=-4,25=1,41=700000,70=2,71=2,116=1,135=40,140=1/1,2,3;
 4/5=101,35=1/1;
 5/5=2,35=1,38=6,98=1/2;
 8/6=4,10=90,11=11/1;
 11/6=1,8=1,9=11,15=111,16=1/1,2,10;
 10/6=1/2;
 6/7=2,8=2,9=2,10=2,28=1/1;
 7/8=1,10=1,25=1/1,2,3,16;
 1/10=4,30=1/3;
 99//99;
 Leave Link    1 at Mon Nov  6 14:55:34 2017, MaxMem=   134217728 cpu:               0.1 elap:               0.1
 (Enter /n/sw/g16_nehalem/g16/l101.exe)
 Structure from the checkpoint file:  "/scratch/dhuang9_Cl_isolated/Gau-46409.chk"
 -----------
 isolated Cl
 -----------
 Charge = -1 Multiplicity = 1
 No Z-Matrix found in chk file; cartesian coordinates used.
  Cl                                               -0.516129040000      0.612903220000      0.000000000000
 Recover connectivity data from disk.
 ITRead=  0
 MicOpt= -1
 NAtoms=      1 NQM=        1 NQMF=       0 NMMI=      0 NMMIF=      0
                NMic=       0 NMicF=      0.
                    Isotopes and Nuclear Properties:
 (Nuclear quadrupole moments (NQMom) in fm**2, nuclear magnetic moments (NMagM)
  in nuclear magnetons)

  Atom         1
 IAtWgt=          35
 AtmWgt=  34.9688527
 NucSpn=           3
 AtZEff= 204.0000000
 NQMom=   -8.1650000
 NMagM=    0.8218740
 AtZNuc=  17.0000000
 Leave Link  101 at Mon Nov  6 14:55:35 2017, MaxMem=   134217728 cpu:               0.5 elap:               0.5
 (Enter /n/sw/g16_nehalem/g16/l103.exe)

 GradGradGradGradGradGradGradGradGradGradGradGradGradGradGradGradGradGrad
 Berny optimization.
 Initialization pass.
 Trust Radius=3.00D-01 FncErr=1.00D-07 GrdErr=1.00D-07 EigMax=2.50D+02 EigMin=1.00D-04
 Number of steps in this run=      2 maximum allowed number of steps=      2.
 GradGradGradGradGradGradGradGradGradGradGradGradGradGradGradGradGradGrad

 Leave Link  103 at Mon Nov  6 14:55:35 2017, MaxMem=   134217728 cpu:               0.1 elap:               0.1
 (Enter /n/sw/g16_nehalem/g16/l202.exe)
                          Input orientation:                          
 ---------------------------------------------------------------------
 Center     Atomic      Atomic             Coordinates (Angstroms)
 Number     Number       Type             X           Y           Z
 ---------------------------------------------------------------------
      1         17           0       -0.516129    0.612903    0.000000
 ---------------------------------------------------------------------
 Stoichiometry    Cl(1-)
 Framework group  OH[O(Cl)]
 Deg. of freedom     0
 Full point group                 OH      NOp  48
 RotChk:  IX=0 Diff= 0.00D+00
 Largest Abelian subgroup         D2H     NOp   8
 Largest concise Abelian subgroup C1      NOp   1
                         Standard orientation:                         
 ---------------------------------------------------------------------
 Center     Atomic      Atomic             Coordinates (Angstroms)
 Number     Number       Type             X           Y           Z
 ---------------------------------------------------------------------
      1         17           0        0.000000    0.000000    0.000000
 ---------------------------------------------------------------------
 Leave Link  202 at Mon Nov  6 14:55:35 2017, MaxMem=   134217728 cpu:               0.0 elap:               0.0
 (Enter /n/sw/g16_nehalem/g16/l301.exe)
 Standard basis: VSTO-6G (5D, 7F)
 Ernie: Thresh=  0.10000D-02 Tol=  0.10000D-05 Strict=F.
  NNHCO=     0 NNPyr=     0 NCTC=     0               EPep=         0.000000000
    EC=         0.000000000  ECS=         0.000000000   EG=         0.000000000
   EHC=         0.000000000  EAt=       -13.678040664  AtH=         0.046198506
 EPDDG=         0.000000000  ECC=         0.000000000 EAtT=        13.724239170
 There are     1 symmetry adapted cartesian basis functions of AG  symmetry.
 There are     0 symmetry adapted cartesian basis functions of B1G symmetry.
 There are     0 symmetry adapted cartesian basis functions of B2G symmetry.
 There are     0 symmetry adapted cartesian basis functions of B3G symmetry.
 There are     0 symmetry adapted cartesian basis functions of AU  symmetry.
 There are     1 symmetry adapted cartesian basis functions of B1U symmetry.
 There are     1 symmetry adapted cartesian basis functions of B2U symmetry.
 There are     1 symmetry adapted cartesian basis functions of B3U symmetry.
 There are     1 symmetry adapted basis functions of AG  symmetry.
 There are     0 symmetry adapted basis functions of B1G symmetry.
 There are     0 symmetry adapted basis functions of B2G symmetry.
 There are     0 symmetry adapted basis functions of B3G symmetry.
 There are     0 symmetry adapted basis functions of AU  symmetry.
 There are     1 symmetry adapted basis functions of B1U symmetry.
 There are     1 symmetry adapted basis functions of B2U symmetry.
 There are     1 symmetry adapted basis functions of B3U symmetry.
     4 basis functions,    24 primitive gaussians,     4 cartesian basis functions
     4 alpha electrons        4 beta electrons
       nuclear repulsion energy        13.7242391698 Hartrees.
 IExCor=    0 DFT=F Ex=HF Corr=None ExCW=0 ScaHFX=  1.000000
 ScaDFX=  1.000000  1.000000  1.000000  1.000000 ScalE2=  1.000000  1.000000
 IRadAn=      5 IRanWt=     -1 IRanGd=            0 ICorTp=0 IEmpDi=  4
 Integral buffers will be    131072 words long.
 Regular integral format.
 Two-electron integral symmetry is turned off.
 Leave Link  301 at Mon Nov  6 14:55:35 2017, MaxMem=   134217728 cpu:               0.1 elap:               0.1
 (Enter /n/sw/g16_nehalem/g16/l302.exe)
 Do NDO integrals.
 NPDir=0 NMtPBC=     1 NCelOv=     1 NCel=       1 NClECP=     1 NCelD=      1
         NCelK=      1 NCelE2=     1 NClLst=     1 CellRange=     0.0.
 One-electron integrals computed using PRISM.
 NBasis=     4 RedAO= T EigKep=  1.00D+00  NBF=     1     0     0     0     0     1     1     1
 NBsUse=     4 1.00D-06 EigRej= -1.00D+00 NBFU=     1     0     0     0     0     1     1     1
 Leave Link  302 at Mon Nov  6 14:55:35 2017, MaxMem=   134217728 cpu:               0.2 elap:               0.3
 (Enter /n/sw/g16_nehalem/g16/l303.exe)
 DipDrv:  MaxL=1.
 Leave Link  303 at Mon Nov  6 14:55:35 2017, MaxMem=   134217728 cpu:               0.1 elap:               0.1
 (Enter /n/sw/g16_nehalem/g16/l401.exe)
 Initial guess from the checkpoint file:  "/scratch/dhuang9_Cl_isolated/Gau-46409.chk"
 B after Tr=     0.000000    0.000000    0.000000
         Rot=    1.000000    0.000000    0.000000    0.000000 Ang=   0.00 deg.
 Guess basis will be translated and rotated to current coordinates.
 JPrj=0 DoOrth=T DoCkMO=T.
 Initial guess orbital symmetries:
       Occupied  (A1G) (T1U) (T1U) (T1U)
 The electronic state of the initial guess is 1-A1G.
 Leave Link  401 at Mon Nov  6 14:55:36 2017, MaxMem=   134217728 cpu:               0.3 elap:               0.3
 (Enter /n/sw/g16_nehalem/g16/l502.exe)
 Keep J ints in memory in canonical form, NReq=859057.
 FoFCou: FMM=F IPFlag=           0 FMFlag=           0 FMFlg1=           0
         NFxFlg=           0 DoJE=F BraDBF=F KetDBF=F FulRan=T
         wScrn=  0.000000 ICntrl=       600 IOpCl=  2 I1Cent=           0 NGrid=           0
         NMat0=    1 NMatS0=     10 NMatT0=    0 NMatD0=    1 NMtDS0=    0 NMtDT0=    0
 Symmetry not used in FoFCou.
 Two-electron integral symmetry not used.
 Closed shell SCF:
 Using DIIS extrapolation, IDIIS=  1040.
 Overlap will be assumed to be unity.
 NGot=   134217728 LenX=   134157476 LenY=   134156594
 Requested convergence on RMS density matrix=1.00D-08 within 128 cycles.
 Requested convergence on MAX density matrix=1.00D-06.
 Requested convergence on             energy=1.00D-06.
 No special actions if energy rises.

 Cycle   1  Pass 1  IDiag  1:
 E=-0.600109723407147E-01
 DIIS: error= 0.00D+00 at cycle   1 NSaved=   1.
 NSaved= 1 IEnMin= 1 EnMin=-0.600109723407147E-01 IErMin= 1 ErrMin= 0.00D+00
 ErrMax= 0.00D+00  0.00D+00 EMaxC= 1.00D-01 BMatC= 0.00D+00 BMatP= 0.00D+00
 IDIUse=1 WtCom= 1.00D+00 WtEn= 0.00D+00
 Coeff-Com:  0.100D+01
 Coeff:      0.100D+01
 RMSDP=0.00D+00 MaxDP=0.00D+00              OVMax= 0.00D+00

 Cycle   2  Pass 2  IDiag  1:
 SCF Done:  E(RAM1) = -0.600109723407E-01 A.U. after    2 cycles
            NFock=  1  Conv=0.00D+00     -V/T= 0.9976
 KE=-2.510230689060D+01 PE= 0.000000000000D+00 EE= 1.131805674845D+01
 Leave Link  502 at Mon Nov  6 14:55:36 2017, MaxMem=   134217728 cpu:               0.1 elap:               0.1
 (Enter /n/sw/g16_nehalem/g16/l801.exe)
 Range of M.O.s used for correlation:     1     4
 NBasis=     4 NAE=     4 NBE=     4 NFC=     0 NFV=     0
 NROrb=      4 NOA=     4 NOB=     4 NVA=     0 NVB=     0
 *** There is no correlation energy for this system ***
 Leave Link  801 at Mon Nov  6 14:55:36 2017, MaxMem=   134217728 cpu:               0.1 elap:               0.1
 (Enter /n/sw/g16_nehalem/g16/l1101.exe)
 Using compressed storage, NAtomX=     1.
 Will process      2 centers per pass.
 Leave Link 1101 at Mon Nov  6 14:55:36 2017, MaxMem=   134217728 cpu:               0.2 elap:               0.2
 (Enter /n/sw/g16_nehalem/g16/l1102.exe)
 Symmetrizing basis deriv contribution to polar:
 IMax=3 JMax=2 DiffMx= 0.00D+00
 Leave Link 1102 at Mon Nov  6 14:55:37 2017, MaxMem=   134217728 cpu:               0.1 elap:               0.1
 (Enter /n/sw/g16_nehalem/g16/l1110.exe)
 Forming Gx(P) for the SCF density, NAtomX=     1.
 Integral derivatives from FoFJK, PRISM(SPDF).
 Do as many integral derivatives as possible in FoFJK.
 G2DrvN: MDV=     134158650.
 G2DrvN: will do     2 centers at a time, making    1 passes.
 Calling FoFCou, ICntrl=  3107 FMM=F I1Cent=   0 AccDes= 0.00D+00.
 FoFJK:  IHMeth= 8 ICntrl=    3107 DoSepK=F KAlg= 0 I1Cent=           0 FoldK=F
 IRaf=         0 NMat=       1 IRICut=       1 DoRegI=T DoRafI=F ISym2E= 0 IDoP0=3 IntGTp=3.
 FoFCou: FMM=F IPFlag=           0 FMFlag=      100000 FMFlg1=           0
         NFxFlg=           0 DoJE=F BraDBF=F KetDBF=F FulRan=T
         wScrn=  0.000000 ICntrl=      3107 IOpCl=  0 I1Cent=           0 NGrid=           0
         NMat0=    1 NMatS0=      1 NMatT0=    0 NMatD0=    1 NMtDS0=    0 NMtDT0=    0
 Symmetry not used in FoFCou.
 End of G2Drv F.D. properties file   721 does not exist.
 End of G2Drv F.D. properties file   722 does not exist.
 End of G2Drv F.D. properties file   788 does not exist.
 Leave Link 1110 at Mon Nov  6 14:55:38 2017, MaxMem=   134217728 cpu:               0.1 elap:               0.6
 (Enter /n/sw/g16_nehalem/g16/l1002.exe)
 Minotr:  Closed shell wavefunction.
          IDoAtm=1
          Direct CPHF calculation.
          Differentiating once with respect to electric field.
                with respect to dipole field.
          Differentiating once with respect to nuclear coordinates.
          Electric field/nuclear overlap derivatives assumed to be zero.
          Using symmetry in CPHF.
          Requested convergence is 1.0D-08 RMS, and 1.0D-07 maximum.
          NewPWx=T KeepS1=F KeepF1=F KeepIn=T MapXYZ=F SortEE=F KeepMc=T.
 Keep J ints in memory in canonical form, NReq=859398.
 FoFCou: FMM=F IPFlag=           0 FMFlag=           0 FMFlg1=           0
         NFxFlg=           0 DoJE=F BraDBF=F KetDBF=F FulRan=T
         wScrn=  0.000000 ICntrl=       600 IOpCl=  2 I1Cent=           0 NGrid=           0
         NMat0=    1 NMatS0=     10 NMatT0=    0 NMatD0=    1 NMtDS0=    0 NMtDT0=    0
 Symmetry not used in FoFCou.
 Two-electron integral symmetry not used.
          MDV=     134217728 using IRadAn=       1.
          Solving linear equations separately, MaxMat=       0.
          There are     6 degrees of freedom in the 1st order CPHF.  IDoFFX=5 NUNeed=     6.
 LinEq1:  Iter=  0 NonCon=     0 RMS=0.00D+00 Max=0.00D+00 NDo=     0
 FullF1:  Do perturbations      1 to       3.
 FoF2E skips out because all densities are zero.
 Isotropic polarizability for W=    0.000000        0.00 Bohr**3.
 End of Minotr F.D. properties file   721 does not exist.
 End of Minotr F.D. properties file   722 does not exist.
 End of Minotr F.D. properties file   788 does not exist.
 Leave Link 1002 at Mon Nov  6 14:55:38 2017, MaxMem=   134217728 cpu:               0.1 elap:               0.3
 (Enter /n/sw/g16_nehalem/g16/l601.exe)
 Copying SCF densities to generalized density rwf, IOpCl= 0 IROHF=0.

 **********************************************************************

            Population analysis using the SCF density.

 **********************************************************************

 Orbital symmetries:
       Occupied  (A1G) (T1U) (T1U) (T1U)
 The electronic state is 1-A1G.
 Alpha  occ. eigenvalues --   -0.91447  -0.10621  -0.10621  -0.10621
          Condensed to atoms (all electrons):
               1
     1  Cl   8.000000
 Mulliken charges:
               1
     1  Cl  -1.000000
 Sum of Mulliken charges =  -1.00000
 Mulliken charges with hydrogens summed into heavy atoms:
               1
     1  Cl  -1.000000
 APT charges:
               1
     1  Cl  -1.000000
 Sum of APT charges =  -1.00000
 APT charges with hydrogens summed into heavy atoms:
               1
     1  Cl  -1.000000
 Charge=             -1.0000 electrons
 Dipole moment (field-independent basis, Debye):
    X=              0.0000    Y=              0.0000    Z=              0.0000  Tot=              0.0000
 N-N= 1.372423916981D+01 E-N= 0.000000000000D+00  KE=-2.510230689060D+01
 Symmetry AG   KE=-8.203474234580D+00
 Symmetry B1G  KE= 0.000000000000D+00
 Symmetry B2G  KE= 0.000000000000D+00
 Symmetry B3G  KE= 0.000000000000D+00
 Symmetry AU   KE= 0.000000000000D+00
 Symmetry B1U  KE=-5.632944218674D+00
 Symmetry B2U  KE=-5.632944218674D+00
 Symmetry B3U  KE=-5.632944218674D+00
  Exact polarizability:   0.000   0.000   0.000   0.000   0.000   0.000
 Approx polarizability:   0.000   0.000   0.000   0.000   0.000   0.000
 Leave Link  601 at Mon Nov  6 14:55:38 2017, MaxMem=   134217728 cpu:               0.1 elap:               0.1
 (Enter /n/sw/g16_nehalem/g16/l701.exe)
 ... and contract with generalized density number  0.
 Compute integral second derivatives.
 Leave Link  701 at Mon Nov  6 14:55:39 2017, MaxMem=   134217728 cpu:               0.1 elap:               0.1
 (Enter /n/sw/g16_nehalem/g16/l702.exe)
 L702 exits ... SP integral derivatives will be done elsewhere.
 Leave Link  702 at Mon Nov  6 14:55:39 2017, MaxMem=   134217728 cpu:               0.1 elap:               0.1
 (Enter /n/sw/g16_nehalem/g16/l703.exe)
 Integral derivatives from FoFJK, PRISM(SPDF).
 Compute integral second derivatives, UseDBF=F ICtDFT=           0.
 Calling FoFJK, ICntrl=    100127 FMM=F ISym2X=1 I1Cent= 0 IOpClX= 0 NMat=1 NMatS=1 NMatT=0.
 FoFJK:  IHMeth= 8 ICntrl=  100127 DoSepK=F KAlg= 0 I1Cent=           0 FoldK=F
 IRaf=         0 NMat=       1 IRICut=       1 DoRegI=T DoRafI=F ISym2E= 1 IDoP0=3 IntGTp=3.
 FoFCou: FMM=F IPFlag=           0 FMFlag=      100000 FMFlg1=         800
         NFxFlg=           0 DoJE=F BraDBF=F KetDBF=F FulRan=T
         wScrn=  0.000000 ICntrl=    100127 IOpCl=  0 I1Cent=           0 NGrid=           0
         NMat0=    1 NMatS0=      1 NMatT0=    0 NMatD0=    1 NMtDS0=    0 NMtDT0=    0
 Petite list used in FoFCou.
 Leave Link  703 at Mon Nov  6 14:55:39 2017, MaxMem=   134217728 cpu:               0.1 elap:               0.1
 (Enter /n/sw/g16_nehalem/g16/l716.exe)
 Dipole        = 0.00000000D+00 0.00000000D+00 0.00000000D+00
 Polarizability= 0.00000000D+00 0.00000000D+00 0.00000000D+00
                 0.00000000D+00 0.00000000D+00 0.00000000D+00
 HyperPolar    = 0.00000000D+00 0.00000000D+00 0.00000000D+00
                 0.00000000D+00 0.00000000D+00 0.00000000D+00
                 0.00000000D+00 0.00000000D+00 0.00000000D+00
                 0.00000000D+00
 Full mass-weighted force constant matrix:
 Low frequencies ---    0.0000    0.0000    0.0000
 Diagonal vibrational polarizability:
        0.0000000       0.0000000       0.0000000
 Harmonic frequencies (cm**-1), IR intensities (KM/Mole), Raman scattering
 activities (A**4/AMU), depolarization ratios for plane and unpolarized
 incident light, reduced masses (AMU), force constants (mDyne/A),
 and normal coordinates:

 -------------------
 - Thermochemistry -
 -------------------
 Temperature   298.150 Kelvin.  Pressure   1.00000 Atm.
 Atom     1 has atomic number 17 and mass  34.96885
 Molecular mass:    34.96885 amu.
 Zero-point vibrational energy          0.0 (Joules/Mol)
                                    0.00000 (Kcal/Mol)
 Vibrational temperatures: 
          (Kelvin)
 
 Zero-point correction=                           0.000000 (Hartree/Particle)
 Thermal correction to Energy=                    0.001416
 Thermal correction to Enthalpy=                  0.002360
 Thermal correction to Gibbs Free Energy=        -0.015023
 Sum of electronic and zero-point Energies=             -0.060011
 Sum of electronic and thermal Energies=                -0.058595
 Sum of electronic and thermal Enthalpies=              -0.057651
 Sum of electronic and thermal Free Energies=           -0.075034
 
                     E (Thermal)             CV                S
                      KCal/Mol        Cal/Mol-Kelvin    Cal/Mol-Kelvin
 Total                    0.889              2.981             36.586
 Electronic               0.000              0.000              0.000
 Translational            0.889              2.981             36.586
 Rotational               0.000              0.000              0.000
 Vibrational              0.000              0.000              0.000
                       Q            Log10(Q)             Ln(Q)
 Total Bot       0.812786D+07          6.909976         15.910808
 Total V=0       0.812786D+07          6.909976         15.910808
 Vib (Bot)       0.100000D+01          0.000000          0.000000
 Vib (V=0)       0.100000D+01          0.000000          0.000000
 Electronic      0.100000D+01          0.000000          0.000000
 Translational   0.812786D+07          6.909976         15.910808
 Rotational      0.100000D+01          0.000000          0.000000
 ***** Axes restored to original set *****
 -------------------------------------------------------------------
 Center     Atomic                   Forces (Hartrees/Bohr)
 Number     Number              X              Y              Z
 -------------------------------------------------------------------
      1       17           0.000000000    0.000000000    0.000000000
 -------------------------------------------------------------------
 Cartesian Forces:  Max     0.000000000 RMS     0.000000000
 Force constants in Cartesian coordinates: 
                1             2             3 
      1  0.000000D+00
      2  0.000000D+00  0.000000D+00
      3  0.000000D+00  0.000000D+00  0.000000D+00
 Leave Link  716 at Mon Nov  6 14:55:39 2017, MaxMem=   134217728 cpu:               0.1 elap:               0.2
 (Enter /n/sw/g16_nehalem/g16/l103.exe)

 GradGradGradGradGradGradGradGradGradGradGradGradGradGradGradGradGradGrad
 Berny optimization.
 Search for a local minimum.
 Step number   1 out of a maximum of    2
 All quantities printed in internal units (Hartrees-Bohrs-Radians)
 Second derivative matrix not updated -- analytic derivatives used.
 The second derivative matrix:
                          X1        Y1        Z1
           X1           0.00000
           Y1           0.00000   0.00000
           Z1           0.00000   0.00000   0.00000
 ITU=  0
     Eigenvalues --- 
 Angle between quadratic step and forces=  90.00 degrees.
 ClnCor:  largest displacement from symmetrization is 0.00D+00 for atom     0.
 Linear search not attempted -- first point.
 ClnCor:  largest displacement from symmetrization is 0.00D+00 for atom     0.
 B after Tr=     0.000000    0.000000    0.000000
         Rot=    1.000000    0.000000    0.000000    0.000000 Ang=   0.00 deg.
 Variable       Old X    -DE/DX   Delta X   Delta X   Delta X     New X
                                 (Linear)    (Quad)   (Total)
    X1       -0.97534   0.00000   0.00000   0.00000   0.00000  -0.97534
    Y1        1.15822   0.00000   0.00000   0.00000   0.00000   1.15822
    Z1        0.00000   0.00000   0.00000   0.00000   0.00000   0.00000
         Item               Value     Threshold  Converged?
 Maximum Force            0.000000     0.000450     YES
 RMS     Force            0.000000     0.000300     YES
 Maximum Displacement     0.000000     0.001800     YES
 RMS     Displacement     0.000000     0.001200     YES
 Predicted change in Energy= 0.000000D+00
 Optimization completed.
    -- Stationary point found.
 GradGradGradGradGradGradGradGradGradGradGradGradGradGradGradGradGradGrad

 Leave Link  103 at Mon Nov  6 14:55:39 2017, MaxMem=   134217728 cpu:               0.0 elap:               0.0
 (Enter /n/sw/g16_nehalem/g16/l9999.exe)
 1\1\GINC-HOLYBIGMEM08\Freq\RAM1\ZDO\Cl1(1-)\ROOT\06-Nov-2017\0\\#P Geo
 m=AllCheck Guess=TCheck SCRF=Check GenChk RAM1/ZDO Freq\\isolated Cl\\
 -1,1\Cl,-0.51612904,0.61290322,0.\\Version=ES64L-G16RevA.03\State=1-A1
 G\HF=-0.060011\RMSD=0.000e+00\RMSF=0.000e+00\Thermal=0.0014163\Dipole=
 0.,0.,0.\DipoleDeriv=-1.,0.,0.,0.,-1.,0.,0.,0.,-1.\Polar=0.,0.,0.,0.,0
 .,0.\HyperPolar=0.,0.,0.,0.,0.,0.,0.,0.,0.,0.\PG=OH [O(Cl1)]\NImag=0\\
 0.,0.,0.,0.,0.,0.\\0.,0.,0.\\\@


 OLD HORSE! OLD HORSE! WHAT BROUGHT YOU HERE?
 FROM SACARAP' TO PORTLAND PIER
 I'VE CARTED STONE THIS MANY A YEAR;
 TILL, KILLED BY BLOWS AND SORE ABUSE,
 THEY SALTED ME DOWN FOR SAILORS' USE.
 THE SAILORS THEY DO ME DESPISE;
 THEY TURN ME OVER AND DAMN MY EYES;
 CUT OFF MY MEAT, AND SCRAPE MY BONES,
 AND PITCH ME OVER TO DAVY JONES.

    SAILORS' COMPLAINT ABOUT THE BEEF
    SERVED ON SHIPBOARD, CIRCA 1835.
 Job cpu time:       0 days  0 hours  0 minutes  3.4 seconds.
 Elapsed time:       0 days  0 hours  0 minutes  3.7 seconds.
 File lengths (MBytes):  RWF=      6 Int=      0 D2E=      0 Chk=      2 Scr=      1
 Normal termination of Gaussian 16 at Mon Nov  6 14:55:39 2017.
