 Entering Gaussian System, Link 0=g16
 Input=MeCl_freeze.gjf
 Output=MeCl_freeze.out
 Initial command:
 /n/sw/g16_nehalem/g16/l1.exe "/scratch/dhuang9_MeCl_freeze/Gau-3133.inp" -scrdir="/scratch/dhuang9_MeCl_freeze/"
 Entering Link 1 = /n/sw/g16_nehalem/g16/l1.exe PID=      3144.
  
 Copyright (c) 1988,1990,1992,1993,1995,1998,2003,2009,2016,
            Gaussian, Inc.  All Rights Reserved.
  
 This is part of the Gaussian(R) 16 program.  It is based on
 the Gaussian(R) 09 system (copyright 2009, Gaussian, Inc.),
 the Gaussian(R) 03 system (copyright 2003, Gaussian, Inc.),
 the Gaussian(R) 98 system (copyright 1998, Gaussian, Inc.),
 the Gaussian(R) 94 system (copyright 1995, Gaussian, Inc.),
 the Gaussian 92(TM) system (copyright 1992, Gaussian, Inc.),
 the Gaussian 90(TM) system (copyright 1990, Gaussian, Inc.),
 the Gaussian 88(TM) system (copyright 1988, Gaussian, Inc.),
 the Gaussian 86(TM) system (copyright 1986, Carnegie Mellon
 University), and the Gaussian 82(TM) system (copyright 1983,
 Carnegie Mellon University). Gaussian is a federally registered
 trademark of Gaussian, Inc.
  
 This software contains proprietary and confidential information,
 including trade secrets, belonging to Gaussian, Inc.
  
 This software is provided under written license and may be
 used, copied, transmitted, or stored only in accord with that
 written license.
  
 The following legend is applicable only to US Government
 contracts under FAR:
  
                    RESTRICTED RIGHTS LEGEND
  
 Use, reproduction and disclosure by the US Government is
 subject to restrictions as set forth in subparagraphs (a)
 and (c) of the Commercial Computer Software - Restricted
 Rights clause in FAR 52.227-19.
  
 Gaussian, Inc.
 340 Quinnipiac St., Bldg. 40, Wallingford CT 06492
  
  
 ---------------------------------------------------------------
 Warning -- This program may not be used in any manner that
 competes with the business of Gaussian, Inc. or will provide
 assistance to any competitor of Gaussian, Inc.  The licensee
 of this program is prohibited from giving any competitor of
 Gaussian, Inc. access to this program.  By using this program,
 the user acknowledges that Gaussian, Inc. is engaged in the
 business of creating and licensing software in the field of
 computational chemistry and represents and warrants to the
 licensee that it is not a competitor of Gaussian, Inc. and that
 it will not use this program in any manner prohibited above.
 ---------------------------------------------------------------
  

 Cite this work as:
 Gaussian 16, Revision A.03,
 M. J. Frisch, G. W. Trucks, H. B. Schlegel, G. E. Scuseria, 
 M. A. Robb, J. R. Cheeseman, G. Scalmani, V. Barone, 
 G. A. Petersson, H. Nakatsuji, X. Li, M. Caricato, A. V. Marenich, 
 J. Bloino, B. G. Janesko, R. Gomperts, B. Mennucci, H. P. Hratchian, 
 J. V. Ortiz, A. F. Izmaylov, J. L. Sonnenberg, D. Williams-Young, 
 F. Ding, F. Lipparini, F. Egidi, J. Goings, B. Peng, A. Petrone, 
 T. Henderson, D. Ranasinghe, V. G. Zakrzewski, J. Gao, N. Rega, 
 G. Zheng, W. Liang, M. Hada, M. Ehara, K. Toyota, R. Fukuda, 
 J. Hasegawa, M. Ishida, T. Nakajima, Y. Honda, O. Kitao, H. Nakai, 
 T. Vreven, K. Throssell, J. A. Montgomery, Jr., J. E. Peralta, 
 F. Ogliaro, M. J. Bearpark, J. J. Heyd, E. N. Brothers, K. N. Kudin, 
 V. N. Staroverov, T. A. Keith, R. Kobayashi, J. Normand, 
 K. Raghavachari, A. P. Rendell, J. C. Burant, S. S. Iyengar, 
 J. Tomasi, M. Cossi, J. M. Millam, M. Klene, C. Adamo, R. Cammi, 
 J. W. Ochterski, R. L. Martin, K. Morokuma, O. Farkas, 
 J. B. Foresman, and D. J. Fox, Gaussian, Inc., Wallingford CT, 2016.
 
 ******************************************
 Gaussian 16:  ES64L-G16RevA.03 25-Dec-2016
                 6-Nov-2017 
 ******************************************
 %mem=1GB
 -----------------------
 #p opt=modredundant am1
 -----------------------
 1/18=120,19=15,26=1,38=1/1,3;
 2/9=110,12=2,17=6,18=5,40=1/2;
 3/5=2,25=1,41=700000,71=1/1,2,3;
 4/35=1/1;
 5/5=2,35=1,38=5/2;
 6/7=2,8=2,9=2,10=2,28=1/1;
 7//1,2,3,16;
 1/18=20,19=15,26=1/3(2);
 2/9=110/2;
 99//99;
 2/9=110/2;
 3/5=2,25=1,41=700000,71=1,135=20/1,2,3;
 4/5=5,16=3,35=1/1;
 5/5=2,35=1,38=5/2;
 7//1,2,3,16;
 1/18=20,19=15,26=1/3(-5);
 2/9=110/2;
 6/7=2,8=2,9=2,10=2,19=2,28=1/1;
 99/9=1/99;
 Leave Link    1 at Mon Nov  6 15:08:10 2017, MaxMem=   134217728 cpu:               0.0 elap:               0.1
 (Enter /n/sw/g16_nehalem/g16/l101.exe)
 -----------------
 MeCl + Cl- frozen
 -----------------
 Symbolic Z-matrix:
 Charge = -1 Multiplicity = 1
 C                     0.09687  -0.05485  -0.36746 
 H                     0.09687   1.00063  -0.71545 
 H                     1.01095  -0.58259  -0.71545 
 H                    -0.81721  -0.58259  -0.71545 
 Cl                    0.09687  -0.05485   1.37404 
 Cl                   -0.36162   0.20476  -3.82757 
 
 Add virtual bond connecting atoms Cl6        and H2         Dist= 6.13D+00.
 Add virtual bond connecting atoms Cl6        and H4         Dist= 6.13D+00.
 The following ModRedundant input section has been read:
 B       1       5 F                                                           
 
 ITRead=  0  0  0  0  0  0
 MicOpt= -1 -1 -1 -1 -1 -1
 NAtoms=      6 NQM=        6 NQMF=       0 NMMI=      0 NMMIF=      0
                NMic=       0 NMicF=      0.
                    Isotopes and Nuclear Properties:
 (Nuclear quadrupole moments (NQMom) in fm**2, nuclear magnetic moments (NMagM)
  in nuclear magnetons)

  Atom         1           2           3           4           5           6
 IAtWgt=          12           1           1           1          35          35
 AtmWgt=  12.0000000   1.0078250   1.0078250   1.0078250  34.9688527  34.9688527
 NucSpn=           0           1           1           1           3           3
 AtZEff=   0.0000000   0.0000000   0.0000000   0.0000000   0.0000000   0.0000000
 NQMom=    0.0000000   0.0000000   0.0000000   0.0000000  -8.1650000  -8.1650000
 NMagM=    0.0000000   2.7928460   2.7928460   2.7928460   0.8218740   0.8218740
 AtZNuc=   6.0000000   1.0000000   1.0000000   1.0000000  17.0000000  17.0000000
 Leave Link  101 at Mon Nov  6 15:08:10 2017, MaxMem=   134217728 cpu:               0.3 elap:               0.3
 (Enter /n/sw/g16_nehalem/g16/l103.exe)

 GradGradGradGradGradGradGradGradGradGradGradGradGradGradGradGradGradGrad
 Berny optimization.
 Initialization pass.
                           ----------------------------
                           !    Initial Parameters    !
                           ! (Angstroms and Degrees)  !
 --------------------------                            --------------------------
 ! Name  Definition              Value          Derivative Info.                !
 --------------------------------------------------------------------------------
 ! R1    R(1,2)                  1.1114         estimate D2E/DX2                !
 ! R2    R(1,3)                  1.1114         estimate D2E/DX2                !
 ! R3    R(1,4)                  1.1114         estimate D2E/DX2                !
 ! R4    R(1,5)                  1.7415         Frozen                          !
 ! R5    R(2,6)                  3.2448         estimate D2E/DX2                !
 ! R6    R(4,6)                  3.2423         estimate D2E/DX2                !
 ! A1    A(2,1,3)              110.6671         estimate D2E/DX2                !
 ! A2    A(2,1,4)              110.6671         estimate D2E/DX2                !
 ! A3    A(2,1,5)              108.2471         estimate D2E/DX2                !
 ! A4    A(3,1,4)              110.6671         estimate D2E/DX2                !
 ! A5    A(3,1,5)              108.2471         estimate D2E/DX2                !
 ! A6    A(4,1,5)              108.2471         estimate D2E/DX2                !
 ! A7    A(1,2,6)               93.8629         estimate D2E/DX2                !
 ! A8    A(1,4,6)               93.9946         estimate D2E/DX2                !
 ! A9    A(2,6,4)               32.7365         estimate D2E/DX2                !
 ! D1    D(3,1,2,6)             69.6693         estimate D2E/DX2                !
 ! D2    D(4,1,2,6)            -53.3859         estimate D2E/DX2                !
 ! D3    D(5,1,2,6)           -171.8583         estimate D2E/DX2                !
 ! D4    D(2,1,4,6)             53.4573         estimate D2E/DX2                !
 ! D5    D(3,1,4,6)            -69.5979         estimate D2E/DX2                !
 ! D6    D(5,1,4,6)            171.9297         estimate D2E/DX2                !
 ! D7    D(1,2,6,4)             28.4262         estimate D2E/DX2                !
 ! D8    D(1,4,6,2)            -28.4311         estimate D2E/DX2                !
 --------------------------------------------------------------------------------
 Trust Radius=3.00D-01 FncErr=1.00D-07 GrdErr=1.00D-07 EigMax=2.50D+02 EigMin=1.00D-04
 Number of steps in this run=     33 maximum allowed number of steps=    100.
 GradGradGradGradGradGradGradGradGradGradGradGradGradGradGradGradGradGrad

 Leave Link  103 at Mon Nov  6 15:08:10 2017, MaxMem=   134217728 cpu:               0.0 elap:               0.0
 (Enter /n/sw/g16_nehalem/g16/l202.exe)
                          Input orientation:                          
 ---------------------------------------------------------------------
 Center     Atomic      Atomic             Coordinates (Angstroms)
 Number     Number       Type             X           Y           Z
 ---------------------------------------------------------------------
      1          6           0        0.096872   -0.054852   -0.367460
      2          1           0        0.096872    1.000634   -0.715448
      3          1           0        1.010949   -0.582595   -0.715448
      4          1           0       -0.817205   -0.582595   -0.715448
      5         17           0        0.096872   -0.054852    1.374036
      6         17           0       -0.361624    0.204762   -3.827573
 ---------------------------------------------------------------------
                    Distance matrix (angstroms):
                    1          2          3          4          5
     1  C    0.000000
     2  H    1.111371   0.000000
     3  H    1.111371   1.828155   0.000000
     4  H    1.111371   1.828155   1.828154   0.000000
     5  Cl   1.741496   2.340939   2.340938   2.340938   0.000000
     6  Cl   3.500000   3.244835   3.491305   3.242346   5.228227
                    6
     6  Cl   0.000000
 Stoichiometry    CH3Cl2(1-)
 Framework group  C1[X(CH3Cl2)]
 Deg. of freedom    12
 Full point group                 C1      NOp   1
 Largest Abelian subgroup         C1      NOp   1
 Largest concise Abelian subgroup C1      NOp   1
                         Standard orientation:                         
 ---------------------------------------------------------------------
 Center     Atomic      Atomic             Coordinates (Angstroms)
 Number     Number       Type             X           Y           Z
 ---------------------------------------------------------------------
      1          6           0        0.721808    0.132750    0.000001
      2          1           0        0.320795   -0.347619    0.918467
      3          1           0        0.487338    1.219070   -0.008841
      4          1           0        0.319176   -0.362846   -0.909624
      5         17           0        2.453547   -0.051338    0.000000
      6         17           0       -2.774615   -0.025433    0.000000
 ---------------------------------------------------------------------
 Rotational constants (GHZ):         134.4694919           1.0354547           1.0346280
 Leave Link  202 at Mon Nov  6 15:08:10 2017, MaxMem=   134217728 cpu:               0.0 elap:               0.0
 (Enter /n/sw/g16_nehalem/g16/l301.exe)
 Standard basis: VSTO-6G (5D, 7F)
 Ernie: Thresh=  0.10000D-02 Tol=  0.10000D-05 Strict=F.
  NNHCO=     0 NNPyr=     0 NCTC=     0               EPep=         0.000000000
    EC=        28.424466821  ECS=         0.506047534   EG=         0.110991522
   EHC=         0.000000000  EAt=       -33.052413022  AtH=         0.613817027
 EPDDG=         0.000000000  ECC=        29.041505878 EAtT=        33.666230050
 There are    15 symmetry adapted cartesian basis functions of A   symmetry.
 There are    15 symmetry adapted basis functions of A   symmetry.
    15 basis functions,    90 primitive gaussians,    15 cartesian basis functions
    11 alpha electrons       11 beta electrons
       nuclear repulsion energy        62.7077359271 Hartrees.
 IExCor=    0 DFT=F Ex=HF Corr=None ExCW=0 ScaHFX=  1.000000
 ScaDFX=  1.000000  1.000000  1.000000  1.000000 ScalE2=  1.000000  1.000000
 IRadAn=      5 IRanWt=     -1 IRanGd=            0 ICorTp=0 IEmpDi=  4
 Integral buffers will be    131072 words long.
 Regular integral format.
 Two-electron integral symmetry is turned off.
 Leave Link  301 at Mon Nov  6 15:08:10 2017, MaxMem=   134217728 cpu:               0.1 elap:               0.1
 (Enter /n/sw/g16_nehalem/g16/l302.exe)
 Do NDO integrals.
 NPDir=0 NMtPBC=     1 NCelOv=     1 NCel=       1 NClECP=     1 NCelD=      1
         NCelK=      1 NCelE2=     1 NClLst=     1 CellRange=     0.0.
 One-electron integrals computed using PRISM.
 NBasis=    15 RedAO= F EigKep=  0.00D+00  NBF=    15
 NBsUse=    15 1.00D-04 EigRej=  0.00D+00 NBFU=    15
 Leave Link  302 at Mon Nov  6 15:08:10 2017, MaxMem=   134217728 cpu:               0.1 elap:               0.1
 (Enter /n/sw/g16_nehalem/g16/l303.exe)
 DipDrv:  MaxL=1.
 Leave Link  303 at Mon Nov  6 15:08:10 2017, MaxMem=   134217728 cpu:               0.1 elap:               0.1
 (Enter /n/sw/g16_nehalem/g16/l401.exe)
 Simple Huckel Guess.
 JPrj=0 DoOrth=F DoCkMO=F.
 Leave Link  401 at Mon Nov  6 15:08:10 2017, MaxMem=   134217728 cpu:               0.1 elap:               0.1
 (Enter /n/sw/g16_nehalem/g16/l502.exe)
 Keep J ints in memory in canonical form, NReq=859725.
 FoFCou: FMM=F IPFlag=           0 FMFlag=           0 FMFlg1=           0
         NFxFlg=           0 DoJE=F BraDBF=F KetDBF=F FulRan=T
         wScrn=  0.000000 ICntrl=       600 IOpCl=  2 I1Cent=           0 NGrid=           0
         NMat0=    1 NMatS0=     33 NMatT0=    0 NMatD0=    1 NMtDS0=    0 NMtDT0=    0
 Symmetry not used in FoFCou.
 Two-electron integral symmetry not used.
 Closed shell SCF:
 Using DIIS extrapolation, IDIIS=  1040.
 Overlap will be assumed to be unity.
 NGot=   134217728 LenX=   134156826 LenY=   134155944
 Requested convergence on RMS density matrix=1.00D-08 within 128 cycles.
 Requested convergence on MAX density matrix=1.00D-06.
 Requested convergence on             energy=1.00D-06.
 No special actions if energy rises.

 Cycle   1  Pass 1  IDiag  1:
 E= 0.136172071280903    
 DIIS: error= 1.11D-01 at cycle   1 NSaved=   1.
 NSaved= 1 IEnMin= 1 EnMin= 0.136172071280903     IErMin= 1 ErrMin= 1.11D-01
 ErrMax= 1.11D-01  0.00D+00 EMaxC= 1.00D-01 BMatC= 1.10D-01 BMatP= 1.10D-01
 IDIUse=3 WtCom= 0.00D+00 WtEn= 1.00D+00
 Coeff-Com:  0.100D+01
 Coeff-En:   0.100D+01
 Coeff:      0.100D+01
 GapD=    2.000 DampG=2.000 DampE=0.250 DampFc=0.5000 IDamp=-1.
 Damping current iteration by 5.00D-01
 RMSDP=2.57D-02 MaxDP=1.45D-01              OVMax= 0.00D+00

 Cycle   2  Pass 1  IDiag  1:
 E= 0.338026628697605E-01 Delta-E=       -0.102369408411 Rises=F Damp=T
 DIIS: error= 6.72D-02 at cycle   2 NSaved=   2.
 NSaved= 2 IEnMin= 2 EnMin= 0.338026628697605E-01 IErMin= 2 ErrMin= 6.72D-02
 ErrMax= 6.72D-02  0.00D+00 EMaxC= 1.00D-01 BMatC= 4.12D-02 BMatP= 1.10D-01
 IDIUse=3 WtCom= 3.28D-01 WtEn= 6.72D-01
 Coeff-Com: -0.157D+01 0.257D+01
 Coeff-En:   0.000D+00 0.100D+01
 Coeff:     -0.517D+00 0.152D+01
 RMSDP=1.70D-02 MaxDP=9.71D-02 DE=-1.02D-01 OVMax= 0.00D+00

 Cycle   3  Pass 1  IDiag  1:
 E=-0.987513265860756E-01 Delta-E=       -0.132553989456 Rises=F Damp=F
 DIIS: error= 8.53D-03 at cycle   3 NSaved=   3.
 NSaved= 3 IEnMin= 3 EnMin=-0.987513265860756E-01 IErMin= 3 ErrMin= 8.53D-03
 ErrMax= 8.53D-03  0.00D+00 EMaxC= 1.00D-01 BMatC= 8.32D-04 BMatP= 4.12D-02
 IDIUse=3 WtCom= 9.15D-01 WtEn= 8.53D-02
 Coeff-Com:  0.683D+00-0.135D+01 0.166D+01
 Coeff-En:   0.000D+00 0.000D+00 0.100D+01
 Coeff:      0.625D+00-0.123D+01 0.161D+01
 RMSDP=2.70D-03 MaxDP=1.66D-02 DE=-1.33D-01 OVMax= 0.00D+00

 Cycle   4  Pass 1  IDiag  3:
 E=-0.100425324155879     Delta-E=       -0.001673997570 Rises=F Damp=F
 DIIS: error= 2.68D-04 at cycle   4 NSaved=   4.
 NSaved= 4 IEnMin= 4 EnMin=-0.100425324155879     IErMin= 4 ErrMin= 2.68D-04
 ErrMax= 2.68D-04  0.00D+00 EMaxC= 1.00D-01 BMatC= 1.73D-06 BMatP= 8.32D-04
 IDIUse=3 WtCom= 9.97D-01 WtEn= 2.68D-03
 Coeff-Com: -0.184D+00 0.367D+00-0.518D+00 0.133D+01
 Coeff-En:   0.000D+00 0.000D+00 0.000D+00 0.100D+01
 Coeff:     -0.183D+00 0.366D+00-0.517D+00 0.133D+01
 Gap=     0.301 Goal=   None    Shift=    0.000
 RMSDP=2.13D-04 MaxDP=8.82D-04 DE=-1.67D-03 OVMax= 1.47D-03

 Cycle   5  Pass 1  IDiag  3:
 E=-0.100431816384287     Delta-E=       -0.000006492228 Rises=F Damp=F
 DIIS: error= 4.21D-05 at cycle   5 NSaved=   5.
 NSaved= 5 IEnMin= 5 EnMin=-0.100431816384287     IErMin= 5 ErrMin= 4.21D-05
 ErrMax= 4.21D-05  0.00D+00 EMaxC= 1.00D-01 BMatC= 4.86D-08 BMatP= 1.73D-06
 IDIUse=1 WtCom= 1.00D+00 WtEn= 0.00D+00
 Coeff-Com:  0.144D-01-0.296D-01 0.528D-01-0.327D+00 0.129D+01
 Coeff:      0.144D-01-0.296D-01 0.528D-01-0.327D+00 0.129D+01
 Gap=     0.301 Goal=   None    Shift=    0.000
 RMSDP=4.91D-05 MaxDP=2.75D-04 DE=-6.49D-06 OVMax= 3.03D-04

 Cycle   6  Pass 1  IDiag  3:
 E=-0.100432071436813     Delta-E=       -0.000000255053 Rises=F Damp=F
 DIIS: error= 1.04D-05 at cycle   6 NSaved=   6.
 NSaved= 6 IEnMin= 6 EnMin=-0.100432071436813     IErMin= 6 ErrMin= 1.04D-05
 ErrMax= 1.04D-05  0.00D+00 EMaxC= 1.00D-01 BMatC= 1.71D-09 BMatP= 4.86D-08
 IDIUse=1 WtCom= 1.00D+00 WtEn= 0.00D+00
 Coeff-Com: -0.507D-02 0.104D-01-0.198D-01 0.156D+00-0.759D+00 0.162D+01
 Coeff:     -0.507D-02 0.104D-01-0.198D-01 0.156D+00-0.759D+00 0.162D+01
 Gap=     0.301 Goal=   None    Shift=    0.000
 RMSDP=1.09D-05 MaxDP=7.73D-05 DE=-2.55D-07 OVMax= 6.02D-05

 Cycle   7  Pass 1  IDiag  3:
 E=-0.100432081211622     Delta-E=       -0.000000009775 Rises=F Damp=F
 DIIS: error= 1.33D-06 at cycle   7 NSaved=   7.
 NSaved= 7 IEnMin= 7 EnMin=-0.100432081211622     IErMin= 7 ErrMin= 1.33D-06
 ErrMax= 1.33D-06  0.00D+00 EMaxC= 1.00D-01 BMatC= 4.53D-11 BMatP= 1.71D-09
 IDIUse=1 WtCom= 1.00D+00 WtEn= 0.00D+00
 Coeff-Com: -0.523D-03 0.996D-03-0.196D-03-0.277D-01 0.193D+00-0.516D+00
 Coeff-Com:  0.135D+01
 Coeff:     -0.523D-03 0.996D-03-0.196D-03-0.277D-01 0.193D+00-0.516D+00
 Coeff:      0.135D+01
 Gap=     0.301 Goal=   None    Shift=    0.000
 RMSDP=1.61D-06 MaxDP=6.52D-06 DE=-9.77D-09 OVMax= 1.10D-05

 Cycle   8  Pass 1  IDiag  3:
 E=-0.100432081480385     Delta-E=       -0.000000000269 Rises=F Damp=F
 DIIS: error= 4.66D-07 at cycle   8 NSaved=   8.
 NSaved= 8 IEnMin= 8 EnMin=-0.100432081480385     IErMin= 8 ErrMin= 4.66D-07
 ErrMax= 4.66D-07  0.00D+00 EMaxC= 1.00D-01 BMatC= 3.14D-12 BMatP= 4.53D-11
 IDIUse=1 WtCom= 1.00D+00 WtEn= 0.00D+00
 Coeff-Com:  0.393D-03-0.768D-03 0.554D-03 0.117D-01-0.911D-01 0.253D+00
 Coeff-Com: -0.876D+00 0.170D+01
 Coeff:      0.393D-03-0.768D-03 0.554D-03 0.117D-01-0.911D-01 0.253D+00
 Coeff:     -0.876D+00 0.170D+01
 Gap=     0.301 Goal=   None    Shift=    0.000
 RMSDP=6.30D-07 MaxDP=3.42D-06 DE=-2.69D-10 OVMax= 5.76D-06

 Cycle   9  Pass 1  IDiag  3:
 E=-0.100432081506277     Delta-E=       -0.000000000026 Rises=F Damp=F
 DIIS: error= 9.51D-08 at cycle   9 NSaved=   9.
 NSaved= 9 IEnMin= 9 EnMin=-0.100432081506277     IErMin= 9 ErrMin= 9.51D-08
 ErrMax= 9.51D-08  0.00D+00 EMaxC= 1.00D-01 BMatC= 1.90D-13 BMatP= 3.14D-12
 IDIUse=1 WtCom= 1.00D+00 WtEn= 0.00D+00
 Coeff-Com: -0.219D-04 0.373D-04 0.173D-03-0.659D-02 0.446D-01-0.118D+00
 Coeff-Com:  0.404D+00-0.891D+00 0.157D+01
 Coeff:     -0.219D-04 0.373D-04 0.173D-03-0.659D-02 0.446D-01-0.118D+00
 Coeff:      0.404D+00-0.891D+00 0.157D+01
 Gap=     0.301 Goal=   None    Shift=    0.000
 RMSDP=1.31D-07 MaxDP=7.87D-07 DE=-2.59D-11 OVMax= 1.23D-06

 Cycle  10  Pass 1  IDiag  3:
 E=-0.100432081507528     Delta-E=       -0.000000000001 Rises=F Damp=F
 DIIS: error= 2.02D-08 at cycle  10 NSaved=  10.
 NSaved=10 IEnMin=10 EnMin=-0.100432081507528     IErMin=10 ErrMin= 2.02D-08
 ErrMax= 2.02D-08  0.00D+00 EMaxC= 1.00D-01 BMatC= 8.21D-15 BMatP= 1.90D-13
 IDIUse=1 WtCom= 1.00D+00 WtEn= 0.00D+00
 Coeff-Com: -0.176D-05 0.445D-05-0.914D-04 0.292D-02-0.198D-01 0.529D-01
 Coeff-Com: -0.190D+00 0.438D+00-0.938D+00 0.165D+01
 Coeff:     -0.176D-05 0.445D-05-0.914D-04 0.292D-02-0.198D-01 0.529D-01
 Coeff:     -0.190D+00 0.438D+00-0.938D+00 0.165D+01
 Gap=     0.301 Goal=   None    Shift=    0.000
 RMSDP=3.26D-08 MaxDP=1.72D-07 DE=-1.25D-12 OVMax= 2.64D-07

 Cycle  11  Pass 1  IDiag  3:
 E=-0.100432081507620     Delta-E=        0.000000000000 Rises=F Damp=F
 DIIS: error= 9.42D-10 at cycle  11 NSaved=  11.
 NSaved=11 IEnMin=11 EnMin=-0.100432081507620     IErMin=11 ErrMin= 9.42D-10
 ErrMax= 9.42D-10  0.00D+00 EMaxC= 1.00D-01 BMatC= 4.23D-17 BMatP= 8.21D-15
 IDIUse=1 WtCom= 1.00D+00 WtEn= 0.00D+00
 Coeff-Com:  0.729D-06-0.160D-05 0.207D-04-0.646D-03 0.438D-02-0.117D-01
 Coeff-Com:  0.421D-01-0.978D-01 0.217D+00-0.426D+00 0.127D+01
 Coeff:      0.729D-06-0.160D-05 0.207D-04-0.646D-03 0.438D-02-0.117D-01
 Coeff:      0.421D-01-0.978D-01 0.217D+00-0.426D+00 0.127D+01
 Gap=     0.301 Goal=   None    Shift=    0.000
 RMSDP=1.67D-09 MaxDP=5.01D-09 DE=-9.24D-14 OVMax= 8.19D-09

 Cycle  12  Pass 2  IDiag  1:
 SCF Done:  E(RAM1) = -0.100432081508     A.U. after   12 cycles
            NFock= 11  Conv=0.17D-08     -V/T= 0.9982
 KE=-5.720186919232D+01 PE=-5.775828396709D+01 EE= 5.215198515079D+01
 Leave Link  502 at Mon Nov  6 15:08:10 2017, MaxMem=   134217728 cpu:               0.1 elap:               0.1
 (Enter /n/sw/g16_nehalem/g16/l601.exe)
 Copying SCF densities to generalized density rwf, IOpCl= 0 IROHF=0.

 **********************************************************************

            Population analysis using the SCF density.

 **********************************************************************

 Orbital symmetries:
       Occupied  (A) (A) (A) (A) (A) (A) (A) (A) (A) (A) (A)
       Virtual   (A) (A) (A) (A)
 The electronic state is 1-A.
 Alpha  occ. eigenvalues --   -1.25195  -0.92865  -0.92327  -0.42602  -0.42449
 Alpha  occ. eigenvalues --   -0.41874  -0.29939  -0.29845  -0.11935  -0.11891
 Alpha  occ. eigenvalues --   -0.11888
 Alpha virt. eigenvalues --    0.18238   0.28142   0.28476   0.30219
          Condensed to atoms (all electrons):
               1          2          3          4          5          6
     1  C    4.144496   0.000000   0.000000   0.000000   0.000000   0.000000
     2  H    0.000000   0.879102   0.000000   0.000000   0.000000   0.000000
     3  H    0.000000   0.000000   0.896610   0.000000   0.000000   0.000000
     4  H    0.000000   0.000000   0.000000   0.878911   0.000000   0.000000
     5  Cl   0.000000   0.000000   0.000000   0.000000   7.203150   0.000000
     6  Cl   0.000000   0.000000   0.000000   0.000000   0.000000   7.997731
 Mulliken charges:
               1
     1  C   -0.144496
     2  H    0.120898
     3  H    0.103390
     4  H    0.121089
     5  Cl  -0.203150
     6  Cl  -0.997731
 Sum of Mulliken charges =  -1.00000
 Mulliken charges with hydrogens summed into heavy atoms:
               1
     1  C    0.200880
     5  Cl  -0.203150
     6  Cl  -0.997731
 Charge=             -1.0000 electrons
 Dipole moment (field-independent basis, Debye):
    X=             11.0112    Y=              0.2935    Z=             -0.0001  Tot=             11.0151
 N-N= 6.270773592711D+01 E-N=-5.775828395906D+01  KE=-5.720186919232D+01
 Leave Link  601 at Mon Nov  6 15:08:11 2017, MaxMem=   134217728 cpu:               0.1 elap:               0.1
 (Enter /n/sw/g16_nehalem/g16/l701.exe)
 ... and contract with generalized density number  0.
 Compute integral first derivatives.
 Leave Link  701 at Mon Nov  6 15:08:11 2017, MaxMem=   134217728 cpu:               0.1 elap:               0.1
 (Enter /n/sw/g16_nehalem/g16/l702.exe)
 L702 exits ... SP integral derivatives will be done elsewhere.
 Leave Link  702 at Mon Nov  6 15:08:11 2017, MaxMem=   134217728 cpu:               0.0 elap:               0.1
 (Enter /n/sw/g16_nehalem/g16/l703.exe)
 Integral derivatives from FoFJK, PRISM(SPDF).
 Compute integral first derivatives, UseDBF=F ICtDFT=           0.
 Calling FoFJK, ICntrl=      2127 FMM=F ISym2X=0 I1Cent= 0 IOpClX= 0 NMat=1 NMatS=1 NMatT=0.
 FoFJK:  IHMeth= 8 ICntrl=    2127 DoSepK=F KAlg= 0 I1Cent=           0 FoldK=F
 IRaf=         0 NMat=       1 IRICut=       1 DoRegI=T DoRafI=F ISym2E= 0 IDoP0=3 IntGTp=3.
 FoFCou: FMM=F IPFlag=           0 FMFlag=      100000 FMFlg1=         800
         NFxFlg=           0 DoJE=F BraDBF=F KetDBF=F FulRan=T
         wScrn=  0.000000 ICntrl=      2127 IOpCl=  0 I1Cent=           0 NGrid=           0
         NMat0=    1 NMatS0=      1 NMatT0=    0 NMatD0=    1 NMtDS0=    0 NMtDT0=    0
 Symmetry not used in FoFCou.
 Leave Link  703 at Mon Nov  6 15:08:11 2017, MaxMem=   134217728 cpu:               0.0 elap:               0.1
 (Enter /n/sw/g16_nehalem/g16/l716.exe)
 Dipole        = 4.33213932D+00 1.15466168D-01-2.00958243D-05
 ***** Axes restored to original set *****
 -------------------------------------------------------------------
 Center     Atomic                   Forces (Hartrees/Bohr)
 Number     Number              X              Y              Z
 -------------------------------------------------------------------
      1        6           0.000089778   -0.000050262   -0.010525639
      2        1          -0.000327278   -0.000225828   -0.001474924
      3        1          -0.000439255    0.000252001   -0.000478290
      4        1           0.000027243    0.000392481   -0.001487998
      5       17           0.000324033   -0.000183206    0.011289443
      6       17           0.000325479   -0.000185185    0.002677407
 -------------------------------------------------------------------
 Cartesian Forces:  Max     0.011289443 RMS     0.003733379
 Leave Link  716 at Mon Nov  6 15:08:11 2017, MaxMem=   134217728 cpu:               0.1 elap:               0.1
 (Enter /n/sw/g16_nehalem/g16/l103.exe)

 GradGradGradGradGradGradGradGradGradGradGradGradGradGradGradGradGradGrad
 Berny optimization.
 FormGI is forming the generalized inverse of G from B-inverse, IUseBI=4.
 Internal  Forces:  Max     0.011289443 RMS     0.002405587
 Search for a local minimum.
 Step number   1 out of a maximum of   33
 All quantities printed in internal units (Hartrees-Bohrs-Radians)
 RMS Force = .50659D-03 SwitMx=.10000D-02 MixMth= 2
 Mixed Optimization -- En-DIIS/RFO-DIIS
 Second derivative matrix not updated -- first step.
 ITU=  0
     Eigenvalues ---    0.01057   0.01433   0.04724   0.07445   0.09218
     Eigenvalues ---    0.11854   0.12415   0.16502   0.30159   0.31703
     Eigenvalues ---    0.324551000.000001000.000001000.000001000.00000
     Eigenvalues --- 1000.000001000.000001000.000001000.000001000.00000
     Eigenvalues --- 1000.000001000.000001000.00000
 RFO step:  Lambda=-3.91613076D-04 EMin= 1.05656693D-02
 Linear search not attempted -- first point.
 Iteration  1 RMS(Cart)=  0.03000213 RMS(Int)=  0.00023482
 Iteration  2 RMS(Cart)=  0.00017786 RMS(Int)=  0.00007049
 Iteration  3 RMS(Cart)=  0.00000001 RMS(Int)=  0.00007049
 Iteration  1 RMS(Cart)=  0.00000000 RMS(Int)=  0.00000000
 ITry= 1 IFail=0 DXMaxC= 1.03D-01 DCOld= 1.00D+10 DXMaxT= 3.00D-01 DXLimC= 3.00D+00 Rises=F
 Variable       Old X    -DE/DX   Delta X   Delta X   Delta X     New X
                                 (Linear)    (Quad)   (Total)
    R1        2.10019   0.00010   0.00000  -0.00114  -0.00118   2.09901
    R2        2.10019  -0.00033   0.00000  -0.00102  -0.00102   2.09917
    R3        2.10019   0.00011   0.00000  -0.00112  -0.00116   2.09903
    R4        3.29095   0.01129   0.00000   0.00000   0.00000   3.29095
    R5        6.13185  -0.00141   0.00000  -0.11340  -0.11339   6.01846
    R6        6.12715  -0.00141   0.00000  -0.11345  -0.11343   6.01371
    A1        1.93151  -0.00024   0.00000  -0.00495  -0.00503   1.92647
    A2        1.93151   0.00001   0.00000  -0.01011  -0.01022   1.92129
    A3        1.88927   0.00024   0.00000   0.00927   0.00933   1.89860
    A4        1.93150  -0.00024   0.00000  -0.00497  -0.00505   1.92645
    A5        1.88927   0.00001   0.00000   0.00238   0.00239   1.89166
    A6        1.88927   0.00025   0.00000   0.00935   0.00941   1.89868
    A7        1.63822  -0.00015   0.00000  -0.00829  -0.00843   1.62978
    A8        1.64051  -0.00015   0.00000  -0.00828  -0.00842   1.63210
    A9        0.57136   0.00017   0.00000   0.00850   0.00862   0.57998
    D1        1.21596  -0.00056   0.00000  -0.02903  -0.02898   1.18698
    D2       -0.93176  -0.00010   0.00000  -0.01222  -0.01220  -0.94395
    D3       -2.99949  -0.00055   0.00000  -0.02336  -0.02333  -3.02282
    D4        0.93301   0.00010   0.00000   0.01226   0.01223   0.94524
    D5       -1.21471   0.00056   0.00000   0.02905   0.02900  -1.18571
    D6        3.00074   0.00054   0.00000   0.02335   0.02332   3.02406
    D7        0.49613   0.00005   0.00000   0.00956   0.00963   0.50576
    D8       -0.49622  -0.00005   0.00000  -0.00954  -0.00962  -0.50583
         Item               Value     Threshold  Converged?
 Maximum Force            0.001411     0.000450     NO 
 RMS     Force            0.000507     0.000300     NO 
 Maximum Displacement     0.102895     0.001800     NO 
 RMS     Displacement     0.030024     0.001200     NO 
 Predicted change in Energy=-2.003218D-04
 Lowest energy point so far.  Saving SCF results.
 GradGradGradGradGradGradGradGradGradGradGradGradGradGradGradGradGradGrad

 Leave Link  103 at Mon Nov  6 15:08:11 2017, MaxMem=   134217728 cpu:               0.0 elap:               0.0
 (Enter /n/sw/g16_nehalem/g16/l202.exe)
                          Input orientation:                          
 ---------------------------------------------------------------------
 Center     Atomic      Atomic             Coordinates (Angstroms)
 Number     Number       Type             X           Y           Z
 ---------------------------------------------------------------------
      1          6           0        0.089689   -0.050733   -0.373986
      2          1           0        0.083833    1.003821   -0.722755
      3          1           0        0.997372   -0.574817   -0.741945
      4          1           0       -0.826534   -0.572891   -0.722795
      5         17           0        0.114991   -0.065289    1.367265
      6         17           0       -0.336617    0.190413   -3.773123
 ---------------------------------------------------------------------
                    Distance matrix (angstroms):
                    1          2          3          4          5
     1  C    0.000000
     2  H    1.110747   0.000000
     3  H    1.110831   1.824013   0.000000
     4  H    1.110757   1.820657   1.824007   0.000000
     5  Cl   1.741496   2.347797   2.342431   2.347867   0.000000
     6  Cl   3.434242   3.184832   3.398992   3.182319   5.166519
                    6
     6  Cl   0.000000
 Stoichiometry    CH3Cl2(1-)
 Framework group  C1[X(CH3Cl2)]
 Deg. of freedom    12
 Full point group                 C1      NOp   1
 RotChk:  IX=0 Diff= 2.13D-03
 Largest Abelian subgroup         C1      NOp   1
 Largest concise Abelian subgroup C1      NOp   1
                         Standard orientation:                         
 ---------------------------------------------------------------------
 Center     Atomic      Atomic             Coordinates (Angstroms)
 Number     Number       Type             X           Y           Z
 ---------------------------------------------------------------------
      1          6           0        0.695569    0.110393    0.000055
      2          1           0        0.293881   -0.374165    0.915264
      3          1           0        0.439160    1.191183   -0.009724
      4          1           0        0.292228   -0.391010   -0.905314
      5         17           0        2.430336   -0.042554   -0.000022
      6         17           0       -2.736141   -0.021467   -0.000011
 ---------------------------------------------------------------------
 Rotational constants (GHZ):         139.6760209           1.0613609           1.0607427
 Leave Link  202 at Mon Nov  6 15:08:11 2017, MaxMem=   134217728 cpu:               0.0 elap:               0.0
 (Enter /n/sw/g16_nehalem/g16/l301.exe)
 Standard basis: VSTO-6G (5D, 7F)
 Ernie: Thresh=  0.10000D-02 Tol=  0.10000D-05 Strict=F.
  NNHCO=     0 NNPyr=     0 NCTC=     0               EPep=         0.000000000
    EC=        28.608643552  ECS=         0.506938757   EG=         0.110913848
   EHC=         0.000000000  EAt=       -33.052413022  AtH=         0.613817027
 EPDDG=         0.000000000  ECC=        29.226496157 EAtT=        33.666230050
 There are    15 symmetry adapted cartesian basis functions of A   symmetry.
 There are    15 symmetry adapted basis functions of A   symmetry.
    15 basis functions,    90 primitive gaussians,    15 cartesian basis functions
    11 alpha electrons       11 beta electrons
       nuclear repulsion energy        62.8927262067 Hartrees.
 IExCor=    0 DFT=F Ex=HF Corr=None ExCW=0 ScaHFX=  1.000000
 ScaDFX=  1.000000  1.000000  1.000000  1.000000 ScalE2=  1.000000  1.000000
 IRadAn=      5 IRanWt=     -1 IRanGd=            0 ICorTp=0 IEmpDi=  4
 Integral buffers will be    131072 words long.
 Regular integral format.
 Two-electron integral symmetry is turned off.
 Leave Link  301 at Mon Nov  6 15:08:11 2017, MaxMem=   134217728 cpu:               0.1 elap:               0.1
 (Enter /n/sw/g16_nehalem/g16/l302.exe)
 Do NDO integrals.
 NPDir=0 NMtPBC=     1 NCelOv=     1 NCel=       1 NClECP=     1 NCelD=      1
         NCelK=      1 NCelE2=     1 NClLst=     1 CellRange=     0.0.
 One-electron integrals computed using PRISM.
 NBasis=    15 RedAO= F EigKep=  0.00D+00  NBF=    15
 NBsUse=    15 1.00D-04 EigRej=  0.00D+00 NBFU=    15
 Leave Link  302 at Mon Nov  6 15:08:11 2017, MaxMem=   134217728 cpu:               0.1 elap:               0.1
 (Enter /n/sw/g16_nehalem/g16/l303.exe)
 DipDrv:  MaxL=1.
 Leave Link  303 at Mon Nov  6 15:08:11 2017, MaxMem=   134217728 cpu:               0.1 elap:               0.1
 (Enter /n/sw/g16_nehalem/g16/l401.exe)
 Initial guess from the checkpoint file:  "/scratch/dhuang9_MeCl_freeze/Gau-3144.chk"
 B after Tr=     0.000000    0.000000    0.000000
         Rot=    1.000000    0.000418   -0.000001   -0.000230 Ang=   0.05 deg.
 Guess basis will be translated and rotated to current coordinates.
 JPrj=0 DoOrth=T DoCkMO=T.
 Leave Link  401 at Mon Nov  6 15:08:11 2017, MaxMem=   134217728 cpu:               0.1 elap:               0.1
 (Enter /n/sw/g16_nehalem/g16/l502.exe)
 Keep J ints in memory in canonical form, NReq=859725.
 FoFCou: FMM=F IPFlag=           0 FMFlag=           0 FMFlg1=           0
         NFxFlg=           0 DoJE=F BraDBF=F KetDBF=F FulRan=T
         wScrn=  0.000000 ICntrl=       600 IOpCl=  2 I1Cent=           0 NGrid=           0
         NMat0=    1 NMatS0=     33 NMatT0=    0 NMatD0=    1 NMtDS0=    0 NMtDT0=    0
 Symmetry not used in FoFCou.
 Two-electron integral symmetry not used.
 Closed shell SCF:
 Using DIIS extrapolation, IDIIS=  1040.
 Overlap will be assumed to be unity.
 NGot=   134217728 LenX=   134156826 LenY=   134155944
 Requested convergence on RMS density matrix=1.00D-08 within 128 cycles.
 Requested convergence on MAX density matrix=1.00D-06.
 Requested convergence on             energy=1.00D-06.
 No special actions if energy rises.

 Cycle   1  Pass 1  IDiag  1:
 E=-0.100620119279640    
 DIIS: error= 1.63D-03 at cycle   1 NSaved=   1.
 NSaved= 1 IEnMin= 1 EnMin=-0.100620119279640     IErMin= 1 ErrMin= 1.63D-03
 ErrMax= 1.63D-03  0.00D+00 EMaxC= 1.00D-01 BMatC= 3.47D-05 BMatP= 3.47D-05
 IDIUse=3 WtCom= 9.84D-01 WtEn= 1.63D-02
 Coeff-Com:  0.100D+01
 Coeff-En:   0.100D+01
 Coeff:      0.100D+01
 GapD=    2.000 DampG=2.000 DampE=1.000 DampFc=2.0000 IDamp=-1.
 RMSDP=8.67D-04 MaxDP=4.22D-03              OVMax= 0.00D+00

 Cycle   2  Pass 1  IDiag  3:
 E=-0.100771478444393     Delta-E=       -0.000151359165 Rises=F Damp=F
 DIIS: error= 6.93D-04 at cycle   2 NSaved=   2.
 NSaved= 2 IEnMin= 2 EnMin=-0.100771478444393     IErMin= 2 ErrMin= 6.93D-04
 ErrMax= 6.93D-04  0.00D+00 EMaxC= 1.00D-01 BMatC= 6.52D-06 BMatP= 3.47D-05
 IDIUse=3 WtCom= 9.93D-01 WtEn= 6.93D-03
 Coeff-Com: -0.694D+00 0.169D+01
 Coeff-En:   0.000D+00 0.100D+01
 Coeff:     -0.689D+00 0.169D+01
 Gap=     0.304 Goal=   None    Shift=    0.000
 RMSDP=6.64D-04 MaxDP=3.47D-03 DE=-1.51D-04 OVMax= 5.46D-03

 Cycle   3  Pass 1  IDiag  3:
 E=-0.100810189578226     Delta-E=       -0.000038711134 Rises=F Damp=F
 DIIS: error= 9.11D-05 at cycle   3 NSaved=   3.
 NSaved= 3 IEnMin= 3 EnMin=-0.100810189578226     IErMin= 3 ErrMin= 9.11D-05
 ErrMax= 9.11D-05  0.00D+00 EMaxC= 1.00D-01 BMatC= 1.25D-07 BMatP= 6.52D-06
 IDIUse=1 WtCom= 1.00D+00 WtEn= 0.00D+00
 Coeff-Com:  0.270D+00-0.725D+00 0.145D+01
 Coeff:      0.270D+00-0.725D+00 0.145D+01
 Gap=     0.304 Goal=   None    Shift=    0.000
 RMSDP=9.47D-05 MaxDP=5.76D-04 DE=-3.87D-05 OVMax= 7.48D-04

 Cycle   4  Pass 1  IDiag  3:
 E=-0.100810997220002     Delta-E=       -0.000000807642 Rises=F Damp=F
 DIIS: error= 2.31D-05 at cycle   4 NSaved=   4.
 NSaved= 4 IEnMin= 4 EnMin=-0.100810997220002     IErMin= 4 ErrMin= 2.31D-05
 ErrMax= 2.31D-05  0.00D+00 EMaxC= 1.00D-01 BMatC= 7.83D-09 BMatP= 1.25D-07
 IDIUse=1 WtCom= 1.00D+00 WtEn= 0.00D+00
 Coeff-Com: -0.149D+00 0.408D+00-0.960D+00 0.170D+01
 Coeff:     -0.149D+00 0.408D+00-0.960D+00 0.170D+01
 Gap=     0.304 Goal=   None    Shift=    0.000
 RMSDP=2.97D-05 MaxDP=1.74D-04 DE=-8.08D-07 OVMax= 2.75D-04

 Cycle   5  Pass 1  IDiag  3:
 E=-0.100811061243419     Delta-E=       -0.000000064023 Rises=F Damp=F
 DIIS: error= 4.93D-06 at cycle   5 NSaved=   5.
 NSaved= 5 IEnMin= 5 EnMin=-0.100811061243419     IErMin= 5 ErrMin= 4.93D-06
 ErrMax= 4.93D-06  0.00D+00 EMaxC= 1.00D-01 BMatC= 4.31D-10 BMatP= 7.83D-09
 IDIUse=1 WtCom= 1.00D+00 WtEn= 0.00D+00
 Coeff-Com:  0.875D-01-0.240D+00 0.574D+00-0.116D+01 0.173D+01
 Coeff:      0.875D-01-0.240D+00 0.574D+00-0.116D+01 0.173D+01
 Gap=     0.304 Goal=   None    Shift=    0.000
 RMSDP=8.04D-06 MaxDP=4.54D-05 DE=-6.40D-08 OVMax= 8.15D-05

 Cycle   6  Pass 1  IDiag  3:
 E=-0.100811065023990     Delta-E=       -0.000000003781 Rises=F Damp=F
 DIIS: error= 6.23D-07 at cycle   6 NSaved=   6.
 NSaved= 6 IEnMin= 6 EnMin=-0.100811065023990     IErMin= 6 ErrMin= 6.23D-07
 ErrMax= 6.23D-07  0.00D+00 EMaxC= 1.00D-01 BMatC= 9.12D-12 BMatP= 4.31D-10
 IDIUse=1 WtCom= 1.00D+00 WtEn= 0.00D+00
 Coeff-Com: -0.266D-01 0.729D-01-0.175D+00 0.361D+00-0.636D+00 0.140D+01
 Coeff:     -0.266D-01 0.729D-01-0.175D+00 0.361D+00-0.636D+00 0.140D+01
 Gap=     0.304 Goal=   None    Shift=    0.000
 RMSDP=9.74D-07 MaxDP=4.17D-06 DE=-3.78D-09 OVMax= 8.79D-06

 Cycle   7  Pass 1  IDiag  3:
 E=-0.100811065086617     Delta-E=       -0.000000000063 Rises=F Damp=F
 DIIS: error= 6.60D-08 at cycle   7 NSaved=   7.
 NSaved= 7 IEnMin= 7 EnMin=-0.100811065086617     IErMin= 7 ErrMin= 6.60D-08
 ErrMax= 6.60D-08  0.00D+00 EMaxC= 1.00D-01 BMatC= 1.99D-13 BMatP= 9.12D-12
 IDIUse=1 WtCom= 1.00D+00 WtEn= 0.00D+00
 Coeff-Com:  0.655D-02-0.179D-01 0.432D-01-0.899D-01 0.163D+00-0.428D+00
 Coeff-Com:  0.132D+01
 Coeff:      0.655D-02-0.179D-01 0.432D-01-0.899D-01 0.163D+00-0.428D+00
 Coeff:      0.132D+01
 Gap=     0.304 Goal=   None    Shift=    0.000
 RMSDP=1.26D-07 MaxDP=3.32D-07 DE=-6.26D-11 OVMax= 0.00D+00

 Cycle   8  Pass 1  IDiag  3:
 E=-0.100811065087981     Delta-E=       -0.000000000001 Rises=F Damp=F
 DIIS: error= 2.09D-08 at cycle   8 NSaved=   8.
 NSaved= 8 IEnMin= 8 EnMin=-0.100811065087981     IErMin= 8 ErrMin= 2.09D-08
 ErrMax= 2.09D-08  0.00D+00 EMaxC= 1.00D-01 BMatC= 1.17D-14 BMatP= 1.99D-13
 IDIUse=1 WtCom= 1.00D+00 WtEn= 0.00D+00
 Coeff-Com: -0.149D-02 0.409D-02-0.986D-02 0.208D-01-0.381D-01 0.112D+00
 Coeff-Com: -0.522D+00 0.143D+01
 Coeff:     -0.149D-02 0.409D-02-0.986D-02 0.208D-01-0.381D-01 0.112D+00
 Coeff:     -0.522D+00 0.143D+01
 Gap=     0.304 Goal=   None    Shift=    0.000
 RMSDP=3.30D-08 MaxDP=1.31D-07 DE=-1.36D-12 OVMax= 2.63D-07

 Cycle   9  Pass 1  IDiag  3:
 E=-0.100811065088074     Delta-E=        0.000000000000 Rises=F Damp=F
 DIIS: error= 8.14D-09 at cycle   9 NSaved=   9.
 NSaved= 9 IEnMin= 9 EnMin=-0.100811065088074     IErMin= 9 ErrMin= 8.14D-09
 ErrMax= 8.14D-09  0.00D+00 EMaxC= 1.00D-01 BMatC= 9.93D-16 BMatP= 1.17D-14
 IDIUse=1 WtCom= 1.00D+00 WtEn= 0.00D+00
 Coeff-Com:  0.246D-03-0.673D-03 0.164D-02-0.359D-02 0.687D-02-0.257D-01
 Coeff-Com:  0.184D+00-0.764D+00 0.160D+01
 Coeff:      0.246D-03-0.673D-03 0.164D-02-0.359D-02 0.687D-02-0.257D-01
 Coeff:      0.184D+00-0.764D+00 0.160D+01
 Gap=     0.304 Goal=   None    Shift=    0.000
 RMSDP=1.11D-08 MaxDP=6.18D-08 DE=-9.24D-14 OVMax= 1.12D-07

 Cycle  10  Pass 1  IDiag  3:
 E=-0.100811065087910     Delta-E=        0.000000000000 Rises=F Damp=F
 DIIS: error= 2.01D-09 at cycle  10 NSaved=  10.
 NSaved=10 IEnMin= 9 EnMin=-0.100811065088074     IErMin=10 ErrMin= 2.01D-09
 ErrMax= 2.01D-09  0.00D+00 EMaxC= 1.00D-01 BMatC= 5.60D-17 BMatP= 9.93D-16
 IDIUse=1 WtCom= 1.00D+00 WtEn= 0.00D+00
 Coeff-Com:  0.204D-04-0.559D-04 0.125D-03-0.194D-03 0.218D-03 0.180D-02
 Coeff-Com: -0.393D-01 0.222D+00-0.703D+00 0.152D+01
 Coeff:      0.204D-04-0.559D-04 0.125D-03-0.194D-03 0.218D-03 0.180D-02
 Coeff:     -0.393D-01 0.222D+00-0.703D+00 0.152D+01
 Gap=     0.304 Goal=   None    Shift=    0.000
 RMSDP=3.00D-09 MaxDP=1.75D-08 DE= 1.63D-13 OVMax= 2.92D-08

 Cycle  11  Pass 2  IDiag  1:
 SCF Done:  E(RAM1) = -0.100811065088     A.U. after   11 cycles
            NFock= 10  Conv=0.30D-08     -V/T= 0.9982
 KE=-5.720369844750D+01 PE=-5.815014046931D+01 EE= 5.236030164501D+01
 Leave Link  502 at Mon Nov  6 15:08:11 2017, MaxMem=   134217728 cpu:               0.1 elap:               0.1
 (Enter /n/sw/g16_nehalem/g16/l701.exe)
 ... and contract with generalized density number  0.
 Compute integral first derivatives.
 Leave Link  701 at Mon Nov  6 15:08:12 2017, MaxMem=   134217728 cpu:               0.1 elap:               0.1
 (Enter /n/sw/g16_nehalem/g16/l702.exe)
 L702 exits ... SP integral derivatives will be done elsewhere.
 Leave Link  702 at Mon Nov  6 15:08:12 2017, MaxMem=   134217728 cpu:               0.0 elap:               0.1
 (Enter /n/sw/g16_nehalem/g16/l703.exe)
 Integral derivatives from FoFJK, PRISM(SPDF).
 Compute integral first derivatives, UseDBF=F ICtDFT=           0.
 Calling FoFJK, ICntrl=      2127 FMM=F ISym2X=0 I1Cent= 0 IOpClX= 0 NMat=1 NMatS=1 NMatT=0.
 FoFJK:  IHMeth= 8 ICntrl=    2127 DoSepK=F KAlg= 0 I1Cent=           0 FoldK=F
 IRaf=         0 NMat=       1 IRICut=       1 DoRegI=T DoRafI=F ISym2E= 0 IDoP0=3 IntGTp=3.
 FoFCou: FMM=F IPFlag=           0 FMFlag=      100000 FMFlg1=         800
         NFxFlg=           0 DoJE=F BraDBF=F KetDBF=F FulRan=T
         wScrn=  0.000000 ICntrl=      2127 IOpCl=  0 I1Cent=           0 NGrid=           0
         NMat0=    1 NMatS0=      1 NMatT0=    0 NMatD0=    1 NMtDS0=    0 NMtDT0=    0
 Symmetry not used in FoFCou.
 Leave Link  703 at Mon Nov  6 15:08:12 2017, MaxMem=   134217728 cpu:               0.0 elap:               0.1
 (Enter /n/sw/g16_nehalem/g16/l716.exe)
 Dipole        = 4.24514677D+00 9.52130884D-02 3.25197722D-05
 ***** Axes restored to original set *****
 -------------------------------------------------------------------
 Center     Atomic                   Forces (Hartrees/Bohr)
 Number     Number              X              Y              Z
 -------------------------------------------------------------------
      1        6           0.000071805   -0.000042400   -0.011915550
      2        1          -0.000092314    0.000706705   -0.000671032
      3        1           0.000171004   -0.000100332   -0.000244937
      4        1          -0.000658119   -0.000274508   -0.000677015
      5       17           0.000190693   -0.000109343    0.010651850
      6       17           0.000316931   -0.000180122    0.002856684
 -------------------------------------------------------------------
 Cartesian Forces:  Max     0.011915550 RMS     0.003842854
 Leave Link  716 at Mon Nov  6 15:08:12 2017, MaxMem=   134217728 cpu:               0.0 elap:               0.1
 (Enter /n/sw/g16_nehalem/g16/l103.exe)

 GradGradGradGradGradGradGradGradGradGradGradGradGradGradGradGradGradGrad
 Berny optimization.
 Using GEDIIS/GDIIS optimizer.
 FormGI is forming the generalized inverse of G from B-inverse, IUseBI=4.
 Internal  Forces:  Max     0.010654038 RMS     0.002298746
 Search for a local minimum.
 Step number   2 out of a maximum of   33
 All quantities printed in internal units (Hartrees-Bohrs-Radians)
 RMS Force = .60411D-03 SwitMx=.10000D-02 MixMth= 2
 Mixed Optimization -- En-DIIS/RFO-DIIS
 Swapping is turned off.
 Update second derivatives using D2CorX and points    1    2
 DE= -3.79D-04 DEPred=-2.00D-04 R= 1.89D+00
 TightC=F SS=  1.41D+00  RLast= 1.72D-01 DXNew= 5.0454D-01 5.1556D-01
 Trust test= 1.89D+00 RLast= 1.72D-01 DXMaxT set to 5.05D-01
 ITU=  1  0
     Eigenvalues ---    0.00033   0.01571   0.04679   0.08035   0.10178
     Eigenvalues ---    0.11794   0.12339   0.22801   0.30085   0.32126
     Eigenvalues ---    0.390591000.000001000.000001000.000001000.00000
     Eigenvalues --- 1000.000001000.000001000.000001000.000001000.00000
     Eigenvalues --- 1000.000001000.000001000.00000
 En-DIIS/RFO-DIIS/Sim-DIIS IScMMF=       -3 using points:     2    1
 RFO step:  Lambda=-2.02454912D-03.
 NNeg= 0 NGDIIS= 2 SimSw=  2.50D-03 Rises=F DC= -3.79D-04 SmlDif=  1.00D-05
 NRisDI= 0 DoIntr=F SqrtH=F CThrHd= 10.0 CDAdj=  3.0
 RMS Error=  0.1927142144D+00 NUsed= 2 OKEnD=T EnDIS=F
 InvSVX:  RCond= 1.37D-04 Info=           0 Equed=N FErr=  2.02D-12 BErr=  0.00D+00
 Point number   2 has DIIS coefficient -2.91D+01 and has been removed
 IWarn =    0
 DidBck=F Rises=F En-DIIS coefs:    1.00000    0.00000
 Maximum step size (   0.505) exceeded in Quadratic search.
    -- Step size scaled by   0.566
 Iteration  1 RMS(Cart)=  0.06299403 RMS(Int)=  0.04616459
 Iteration  2 RMS(Cart)=  0.03054765 RMS(Int)=  0.00064282
 Iteration  3 RMS(Cart)=  0.00005091 RMS(Int)=  0.00063901
 Iteration  4 RMS(Cart)=  0.00000003 RMS(Int)=  0.00063901
 Iteration  1 RMS(Cart)=  0.00000000 RMS(Int)=  0.00000000
 ITry= 1 IFail=0 DXMaxC= 3.26D-01 DCOld= 1.00D+10 DXMaxT= 5.05D-01 DXLimC= 3.00D+00 Rises=F
 Variable       Old X    -DE/DX   Delta X   Delta X   Delta X     New X
                                 (Linear)    (Quad)   (Total)
    R1        2.09901   0.00060   0.00000  -0.00104  -0.00151   2.09750
    R2        2.09917   0.00027   0.00000  -0.00071  -0.00071   2.09845
    R3        2.09903   0.00060   0.00000  -0.00100  -0.00147   2.09755
    R4        3.29095   0.01065   0.00000   0.00000   0.00000   3.29095
    R5        6.01846  -0.00145   0.00000  -0.35363  -0.35346   5.66500
    R6        6.01371  -0.00146   0.00000  -0.35381  -0.35364   5.66007
    A1        1.92647  -0.00004   0.00000  -0.01027  -0.01069   1.91579
    A2        1.92129   0.00072   0.00000  -0.02219  -0.02312   1.89817
    A3        1.89860  -0.00036   0.00000   0.01912   0.01966   1.91826
    A4        1.92645  -0.00004   0.00000  -0.01034  -0.01076   1.91569
    A5        1.89166   0.00006   0.00000   0.00580   0.00582   1.89747
    A6        1.89868  -0.00036   0.00000   0.01929   0.01983   1.91851
    A7        1.62978  -0.00078   0.00000  -0.02946  -0.03076   1.59902
    A8        1.63210  -0.00078   0.00000  -0.02941  -0.03071   1.60139
    A9        0.57998   0.00046   0.00000   0.03017   0.03172   0.61171
    D1        1.18698  -0.00013   0.00000  -0.06895  -0.06871   1.11827
    D2       -0.94395  -0.00053   0.00000  -0.03430  -0.03385  -0.97780
    D3       -3.02282  -0.00030   0.00000  -0.05627  -0.05598  -3.07881
    D4        0.94524   0.00053   0.00000   0.03441   0.03396   0.97920
    D5       -1.18571   0.00013   0.00000   0.06901   0.06878  -1.11693
    D6        3.02406   0.00030   0.00000   0.05628   0.05599   3.08005
    D7        0.50576  -0.00003   0.00000   0.02507   0.02562   0.53138
    D8       -0.50583   0.00003   0.00000  -0.02503  -0.02558  -0.53141
         Item               Value     Threshold  Converged?
 Maximum Force            0.001456     0.000450     NO 
 RMS     Force            0.000604     0.000300     NO 
 Maximum Displacement     0.326253     0.001800     NO 
 RMS     Displacement     0.087619     0.001200     NO 
 Predicted change in Energy=-1.098603D-03
 Lowest energy point so far.  Saving SCF results.
 GradGradGradGradGradGradGradGradGradGradGradGradGradGradGradGradGradGrad

 Leave Link  103 at Mon Nov  6 15:08:12 2017, MaxMem=   134217728 cpu:               0.0 elap:               0.0
 (Enter /n/sw/g16_nehalem/g16/l202.exe)
                          Input orientation:                          
 ---------------------------------------------------------------------
 Center     Atomic      Atomic             Coordinates (Angstroms)
 Number     Number       Type             X           Y           Z
 ---------------------------------------------------------------------
      1          6           0        0.072385   -0.040806   -0.398937
      2          1           0        0.051792    1.012996   -0.746873
      3          1           0        0.964368   -0.555915   -0.813833
      4          1           0       -0.850604   -0.549705   -0.747024
      5         17           0        0.157214   -0.089656    1.339806
      6         17           0       -0.272420    0.153590   -3.600477
 ---------------------------------------------------------------------
                    Distance matrix (angstroms):
                    1          2          3          4          5
     1  C    0.000000
     2  H    1.109947   0.000000
     3  H    1.110454   1.816248   0.000000
     4  H    1.109978   1.804536   1.816211   0.000000
     5  Cl   1.741496   2.362453   2.346712   2.362668   0.000000
     6  Cl   3.225917   2.997790   3.130244   2.995182   4.964892
                    6
     6  Cl   0.000000
 Stoichiometry    CH3Cl2(1-)
 Framework group  C1[X(CH3Cl2)]
 Deg. of freedom    12
 Full point group                 C1      NOp   1
 RotChk:  IX=0 Diff= 4.45D-03
 Largest Abelian subgroup         C1      NOp   1
 Largest concise Abelian subgroup C1      NOp   1
                         Standard orientation:                         
 ---------------------------------------------------------------------
 Center     Atomic      Atomic             Coordinates (Angstroms)
 Number     Number       Type             X           Y           Z
 ---------------------------------------------------------------------
      1          6           0        0.613128    0.057231    0.000441
      2          1           0        0.212481   -0.440180    0.908211
      3          1           0        0.304935    1.124008   -0.010226
      4          1           0        0.210738   -0.458631   -0.896230
      5         17           0        2.352825   -0.021898   -0.000167
      6         17           0       -2.612056   -0.011548   -0.000092
 ---------------------------------------------------------------------
 Rotational constants (GHZ):         149.4601262           1.1525393           1.1522777
 Leave Link  202 at Mon Nov  6 15:08:12 2017, MaxMem=   134217728 cpu:               0.0 elap:               0.0
 (Enter /n/sw/g16_nehalem/g16/l301.exe)
 Standard basis: VSTO-6G (5D, 7F)
 Ernie: Thresh=  0.10000D-02 Tol=  0.10000D-05 Strict=F.
  NNHCO=     0 NNPyr=     0 NCTC=     0               EPep=         0.000000000
    EC=        29.234081734  ECS=         0.508704713   EG=         0.110590920
   EHC=         0.000000000  EAt=       -33.052413022  AtH=         0.613817027
 EPDDG=         0.000000000  ECC=        29.853377367 EAtT=        33.666230050
 There are    15 symmetry adapted cartesian basis functions of A   symmetry.
 There are    15 symmetry adapted basis functions of A   symmetry.
    15 basis functions,    90 primitive gaussians,    15 cartesian basis functions
    11 alpha electrons       11 beta electrons
       nuclear repulsion energy        63.5196074165 Hartrees.
 IExCor=    0 DFT=F Ex=HF Corr=None ExCW=0 ScaHFX=  1.000000
 ScaDFX=  1.000000  1.000000  1.000000  1.000000 ScalE2=  1.000000  1.000000
 IRadAn=      5 IRanWt=     -1 IRanGd=            0 ICorTp=0 IEmpDi=  4
 Integral buffers will be    131072 words long.
 Regular integral format.
 Two-electron integral symmetry is turned off.
 Leave Link  301 at Mon Nov  6 15:08:12 2017, MaxMem=   134217728 cpu:               0.1 elap:               0.1
 (Enter /n/sw/g16_nehalem/g16/l302.exe)
 Do NDO integrals.
 NPDir=0 NMtPBC=     1 NCelOv=     1 NCel=       1 NClECP=     1 NCelD=      1
         NCelK=      1 NCelE2=     1 NClLst=     1 CellRange=     0.0.
 One-electron integrals computed using PRISM.
 NBasis=    15 RedAO= F EigKep=  0.00D+00  NBF=    15
 NBsUse=    15 1.00D-04 EigRej=  0.00D+00 NBFU=    15
 Leave Link  302 at Mon Nov  6 15:08:12 2017, MaxMem=   134217728 cpu:               0.1 elap:               0.1
 (Enter /n/sw/g16_nehalem/g16/l303.exe)
 DipDrv:  MaxL=1.
 Leave Link  303 at Mon Nov  6 15:08:12 2017, MaxMem=   134217728 cpu:               0.0 elap:               0.1
 (Enter /n/sw/g16_nehalem/g16/l401.exe)
 Initial guess from the checkpoint file:  "/scratch/dhuang9_MeCl_freeze/Gau-3144.chk"
 B after Tr=     0.000000    0.000000    0.000000
         Rot=    1.000000    0.000376   -0.000002   -0.000544 Ang=   0.08 deg.
 Guess basis will be translated and rotated to current coordinates.
 JPrj=0 DoOrth=T DoCkMO=T.
 Leave Link  401 at Mon Nov  6 15:08:12 2017, MaxMem=   134217728 cpu:               0.1 elap:               0.1
 (Enter /n/sw/g16_nehalem/g16/l502.exe)
 Keep J ints in memory in canonical form, NReq=859725.
 FoFCou: FMM=F IPFlag=           0 FMFlag=           0 FMFlg1=           0
         NFxFlg=           0 DoJE=F BraDBF=F KetDBF=F FulRan=T
         wScrn=  0.000000 ICntrl=       600 IOpCl=  2 I1Cent=           0 NGrid=           0
         NMat0=    1 NMatS0=     33 NMatT0=    0 NMatD0=    1 NMtDS0=    0 NMtDT0=    0
 Symmetry not used in FoFCou.
 Two-electron integral symmetry not used.
 Closed shell SCF:
 Using DIIS extrapolation, IDIIS=  1040.
 Overlap will be assumed to be unity.
 NGot=   134217728 LenX=   134156826 LenY=   134155944
 Requested convergence on RMS density matrix=1.00D-08 within 128 cycles.
 Requested convergence on MAX density matrix=1.00D-06.
 Requested convergence on             energy=1.00D-06.
 No special actions if energy rises.

 Cycle   1  Pass 1  IDiag  1:
 E=-0.100756917732689    
 DIIS: error= 3.96D-03 at cycle   1 NSaved=   1.
 NSaved= 1 IEnMin= 1 EnMin=-0.100756917732689     IErMin= 1 ErrMin= 3.96D-03
 ErrMax= 3.96D-03  0.00D+00 EMaxC= 1.00D-01 BMatC= 2.10D-04 BMatP= 2.10D-04
 IDIUse=3 WtCom= 9.60D-01 WtEn= 3.96D-02
 Coeff-Com:  0.100D+01
 Coeff-En:   0.100D+01
 Coeff:      0.100D+01
 GapD=    2.000 DampG=2.000 DampE=1.000 DampFc=2.0000 IDamp=-1.
 RMSDP=2.22D-03 MaxDP=1.02D-02              OVMax= 0.00D+00

 Cycle   2  Pass 1  IDiag  3:
 E=-0.101695778392013     Delta-E=       -0.000938860659 Rises=F Damp=F
 DIIS: error= 1.68D-03 at cycle   2 NSaved=   2.
 NSaved= 2 IEnMin= 2 EnMin=-0.101695778392013     IErMin= 2 ErrMin= 1.68D-03
 ErrMax= 1.68D-03  0.00D+00 EMaxC= 1.00D-01 BMatC= 3.87D-05 BMatP= 2.10D-04
 IDIUse=3 WtCom= 9.83D-01 WtEn= 1.68D-02
 Coeff-Com: -0.680D+00 0.168D+01
 Coeff-En:   0.000D+00 0.100D+01
 Coeff:     -0.668D+00 0.167D+01
 Gap=     0.313 Goal=   None    Shift=    0.000
 RMSDP=1.65D-03 MaxDP=8.09D-03 DE=-9.39D-04 OVMax= 1.23D-02

 Cycle   3  Pass 1  IDiag  3:
 E=-0.101928346309578     Delta-E=       -0.000232567918 Rises=F Damp=F
 DIIS: error= 2.23D-04 at cycle   3 NSaved=   3.
 NSaved= 3 IEnMin= 3 EnMin=-0.101928346309578     IErMin= 3 ErrMin= 2.23D-04
 ErrMax= 2.23D-04  0.00D+00 EMaxC= 1.00D-01 BMatC= 7.66D-07 BMatP= 3.87D-05
 IDIUse=3 WtCom= 9.98D-01 WtEn= 2.23D-03
 Coeff-Com:  0.257D+00-0.706D+00 0.145D+01
 Coeff-En:   0.000D+00 0.000D+00 0.100D+01
 Coeff:      0.257D+00-0.705D+00 0.145D+01
 Gap=     0.313 Goal=   None    Shift=    0.000
 RMSDP=2.33D-04 MaxDP=1.38D-03 DE=-2.33D-04 OVMax= 1.79D-03

 Cycle   4  Pass 1  IDiag  3:
 E=-0.101933224553306     Delta-E=       -0.000004878244 Rises=F Damp=F
 DIIS: error= 5.58D-05 at cycle   4 NSaved=   4.
 NSaved= 4 IEnMin= 4 EnMin=-0.101933224553306     IErMin= 4 ErrMin= 5.58D-05
 ErrMax= 5.58D-05  0.00D+00 EMaxC= 1.00D-01 BMatC= 4.48D-08 BMatP= 7.66D-07
 IDIUse=1 WtCom= 1.00D+00 WtEn= 0.00D+00
 Coeff-Com: -0.128D+00 0.359D+00-0.871D+00 0.164D+01
 Coeff:     -0.128D+00 0.359D+00-0.871D+00 0.164D+01
 Gap=     0.313 Goal=   None    Shift=    0.000
 RMSDP=6.78D-05 MaxDP=3.99D-04 DE=-4.88D-06 OVMax= 6.02D-04

 Cycle   5  Pass 1  IDiag  3:
 E=-0.101933578016350     Delta-E=       -0.000000353463 Rises=F Damp=F
 DIIS: error= 1.32D-05 at cycle   5 NSaved=   5.
 NSaved= 5 IEnMin= 5 EnMin=-0.101933578016350     IErMin= 5 ErrMin= 1.32D-05
 ErrMax= 1.32D-05  0.00D+00 EMaxC= 1.00D-01 BMatC= 2.69D-09 BMatP= 4.48D-08
 IDIUse=1 WtCom= 1.00D+00 WtEn= 0.00D+00
 Coeff-Com:  0.664D-01-0.187D+00 0.464D+00-0.103D+01 0.169D+01
 Coeff:      0.664D-01-0.187D+00 0.464D+00-0.103D+01 0.169D+01
 Gap=     0.313 Goal=   None    Shift=    0.000
 RMSDP=1.98D-05 MaxDP=1.15D-04 DE=-3.53D-07 OVMax= 2.03D-04

 Cycle   6  Pass 1  IDiag  3:
 E=-0.101933602095436     Delta-E=       -0.000000024079 Rises=F Damp=F
 DIIS: error= 1.73D-06 at cycle   6 NSaved=   6.
 NSaved= 6 IEnMin= 6 EnMin=-0.101933602095436     IErMin= 6 ErrMin= 1.73D-06
 ErrMax= 1.73D-06  0.00D+00 EMaxC= 1.00D-01 BMatC= 8.90D-11 BMatP= 2.69D-09
 IDIUse=1 WtCom= 1.00D+00 WtEn= 0.00D+00
 Coeff-Com: -0.173D-01 0.487D-01-0.122D+00 0.289D+00-0.618D+00 0.142D+01
 Coeff:     -0.173D-01 0.487D-01-0.122D+00 0.289D+00-0.618D+00 0.142D+01
 Gap=     0.313 Goal=   None    Shift=    0.000
 RMSDP=3.25D-06 MaxDP=1.51D-05 DE=-2.41D-08 OVMax= 3.12D-05

 Cycle   7  Pass 1  IDiag  3:
 E=-0.101933602755963     Delta-E=       -0.000000000661 Rises=F Damp=F
 DIIS: error= 1.86D-07 at cycle   7 NSaved=   7.
 NSaved= 7 IEnMin= 7 EnMin=-0.101933602755963     IErMin= 7 ErrMin= 1.86D-07
 ErrMax= 1.86D-07  0.00D+00 EMaxC= 1.00D-01 BMatC= 1.61D-12 BMatP= 8.90D-11
 IDIUse=1 WtCom= 1.00D+00 WtEn= 0.00D+00
 Coeff-Com:  0.335D-02-0.941D-02 0.238D-01-0.582D-01 0.130D+00-0.373D+00
 Coeff-Com:  0.128D+01
 Coeff:      0.335D-02-0.941D-02 0.238D-01-0.582D-01 0.130D+00-0.373D+00
 Coeff:      0.128D+01
 Gap=     0.313 Goal=   None    Shift=    0.000
 RMSDP=3.60D-07 MaxDP=1.21D-06 DE=-6.61D-10 OVMax= 2.72D-06

 Cycle   8  Pass 1  IDiag  3:
 E=-0.101933602766103     Delta-E=       -0.000000000010 Rises=F Damp=F
 DIIS: error= 4.16D-08 at cycle   8 NSaved=   8.
 NSaved= 8 IEnMin= 8 EnMin=-0.101933602766103     IErMin= 8 ErrMin= 4.16D-08
 ErrMax= 4.16D-08  0.00D+00 EMaxC= 1.00D-01 BMatC= 6.45D-14 BMatP= 1.61D-12
 IDIUse=1 WtCom= 1.00D+00 WtEn= 0.00D+00
 Coeff-Com: -0.280D-03 0.782D-03-0.202D-02 0.569D-02-0.145D-01 0.590D-01
 Coeff-Com: -0.388D+00 0.134D+01
 Coeff:     -0.280D-03 0.782D-03-0.202D-02 0.569D-02-0.145D-01 0.590D-01
 Coeff:     -0.388D+00 0.134D+01
 Gap=     0.313 Goal=   None    Shift=    0.000
 RMSDP=6.83D-08 MaxDP=2.22D-07 DE=-1.01D-11 OVMax= 2.85D-07

 Cycle   9  Pass 1  IDiag  3:
 E=-0.101933602766479     Delta-E=        0.000000000000 Rises=F Damp=F
 DIIS: error= 1.30D-08 at cycle   9 NSaved=   9.
 NSaved= 9 IEnMin= 9 EnMin=-0.101933602766479     IErMin= 9 ErrMin= 1.30D-08
 ErrMax= 1.30D-08  0.00D+00 EMaxC= 1.00D-01 BMatC= 2.74D-15 BMatP= 6.45D-14
 IDIUse=1 WtCom= 1.00D+00 WtEn= 0.00D+00
 Coeff-Com: -0.101D-04 0.302D-04-0.451D-04-0.253D-03 0.145D-02-0.121D-01
 Coeff-Com:  0.128D+00-0.592D+00 0.148D+01
 Coeff:     -0.101D-04 0.302D-04-0.451D-04-0.253D-03 0.145D-02-0.121D-01
 Coeff:      0.128D+00-0.592D+00 0.148D+01
 Gap=     0.313 Goal=   None    Shift=    0.000
 RMSDP=1.39D-08 MaxDP=7.97D-08 DE=-3.77D-13 OVMax= 8.92D-08

 Cycle  10  Pass 1  IDiag  3:
 E=-0.101933602766479     Delta-E=        0.000000000000 Rises=F Damp=F
 DIIS: error= 3.56D-09 at cycle  10 NSaved=  10.
 NSaved=10 IEnMin= 9 EnMin=-0.101933602766479     IErMin=10 ErrMin= 3.56D-09
 ErrMax= 3.56D-09  0.00D+00 EMaxC= 1.00D-01 BMatC= 1.51D-16 BMatP= 2.74D-15
 IDIUse=1 WtCom= 1.00D+00 WtEn= 0.00D+00
 Coeff-Com:  0.860D-05-0.251D-04 0.459D-04 0.800D-04-0.636D-03 0.598D-02
 Coeff-Com: -0.669D-01 0.320D+00-0.925D+00 0.167D+01
 Coeff:      0.860D-05-0.251D-04 0.459D-04 0.800D-04-0.636D-03 0.598D-02
 Coeff:     -0.669D-01 0.320D+00-0.925D+00 0.167D+01
 Gap=     0.313 Goal=   None    Shift=    0.000
 RMSDP=4.16D-09 MaxDP=2.63D-08 DE= 0.00D+00 OVMax= 3.74D-08

 Cycle  11  Pass 2  IDiag  1:
 SCF Done:  E(RAM1) = -0.101933602766     A.U. after   11 cycles
            NFock= 10  Conv=0.42D-08     -V/T= 0.9982
 KE=-5.721190774403D+01 PE=-5.947721102751D+01 EE= 5.306757775227D+01
 Leave Link  502 at Mon Nov  6 15:08:12 2017, MaxMem=   134217728 cpu:               0.1 elap:               0.1
 (Enter /n/sw/g16_nehalem/g16/l701.exe)
 ... and contract with generalized density number  0.
 Compute integral first derivatives.
 Leave Link  701 at Mon Nov  6 15:08:12 2017, MaxMem=   134217728 cpu:               0.1 elap:               0.1
 (Enter /n/sw/g16_nehalem/g16/l702.exe)
 L702 exits ... SP integral derivatives will be done elsewhere.
 Leave Link  702 at Mon Nov  6 15:08:12 2017, MaxMem=   134217728 cpu:               0.1 elap:               0.1
 (Enter /n/sw/g16_nehalem/g16/l703.exe)
 Integral derivatives from FoFJK, PRISM(SPDF).
 Compute integral first derivatives, UseDBF=F ICtDFT=           0.
 Calling FoFJK, ICntrl=      2127 FMM=F ISym2X=0 I1Cent= 0 IOpClX= 0 NMat=1 NMatS=1 NMatT=0.
 FoFJK:  IHMeth= 8 ICntrl=    2127 DoSepK=F KAlg= 0 I1Cent=           0 FoldK=F
 IRaf=         0 NMat=       1 IRICut=       1 DoRegI=T DoRafI=F ISym2E= 0 IDoP0=3 IntGTp=3.
 FoFCou: FMM=F IPFlag=           0 FMFlag=      100000 FMFlg1=         800
         NFxFlg=           0 DoJE=F BraDBF=F KetDBF=F FulRan=T
         wScrn=  0.000000 ICntrl=      2127 IOpCl=  0 I1Cent=           0 NGrid=           0
         NMat0=    1 NMatS0=      1 NMatT0=    0 NMatD0=    1 NMtDS0=    0 NMtDT0=    0
 Symmetry not used in FoFCou.
 Leave Link  703 at Mon Nov  6 15:08:12 2017, MaxMem=   134217728 cpu:               0.0 elap:               0.1
 (Enter /n/sw/g16_nehalem/g16/l716.exe)
 Dipole        = 3.95474160D+00 4.65336379D-02 3.87252296D-04
 ***** Axes restored to original set *****
 -------------------------------------------------------------------
 Center     Atomic                   Forces (Hartrees/Bohr)
 Number     Number              X              Y              Z
 -------------------------------------------------------------------
      1        6          -0.000136329    0.000074083   -0.015716734
      2        1           0.000600450    0.002379076    0.001128001
      3        1           0.001046399   -0.000604425    0.000259622
      4        1          -0.001754287   -0.001706339    0.001136801
      5       17          -0.000050701    0.000024024    0.010069849
      6       17           0.000294469   -0.000166419    0.003122461
 -------------------------------------------------------------------
 Cartesian Forces:  Max     0.015716734 RMS     0.004560769
 Leave Link  716 at Mon Nov  6 15:08:13 2017, MaxMem=   134217728 cpu:               0.0 elap:               0.1
 (Enter /n/sw/g16_nehalem/g16/l103.exe)

 GradGradGradGradGradGradGradGradGradGradGradGradGradGradGradGradGradGrad
 Berny optimization.
 Using GEDIIS/GDIIS optimizer.
 FormGI is forming the generalized inverse of G from B-inverse, IUseBI=4.
 Internal  Forces:  Max     0.010050784 RMS     0.002432615
 Search for a local minimum.
 Step number   3 out of a maximum of   33
 All quantities printed in internal units (Hartrees-Bohrs-Radians)
 RMS Force = .12629D-02 SwitMx=.10000D-02 MixMth= 1
 Mixed Optimization -- RFO/linear search
 Update second derivatives using D2CorX and points    2    3
 DE= -1.12D-03 DEPred=-1.10D-03 R= 1.02D+00
 TightC=F SS=  1.41D+00  RLast= 5.23D-01 DXNew= 8.4853D-01 1.5698D+00
 Trust test= 1.02D+00 RLast= 5.23D-01 DXMaxT set to 8.49D-01
 ITU=  1  1  0
 Use linear search instead of GDIIS.
     Eigenvalues ---    0.00023   0.01749   0.04540   0.07886   0.10557
     Eigenvalues ---    0.11631   0.12204   0.26384   0.29900   0.32135
     Eigenvalues ---    0.486971000.000001000.000001000.000001000.00000
     Eigenvalues --- 1000.000001000.000001000.000001000.000001000.00000
     Eigenvalues --- 1000.000001000.000001000.00000
 RFO step:  Lambda=-2.94570623D-04 EMin= 2.27143223D-04
 Quartic linear search produced a step of  1.15128.
 Iteration  1 RMS(Cart)=  0.08711714 RMS(Int)=  0.13226704
 Iteration  2 RMS(Cart)=  0.03971971 RMS(Int)=  0.07264656
 Iteration  3 RMS(Cart)=  0.03934097 RMS(Int)=  0.01391238
 Iteration  4 RMS(Cart)=  0.00896788 RMS(Int)=  0.00326263
 Iteration  5 RMS(Cart)=  0.00001621 RMS(Int)=  0.00326259
 Iteration  6 RMS(Cart)=  0.00000003 RMS(Int)=  0.00326259
 Iteration  1 RMS(Cart)=  0.00000000 RMS(Int)=  0.00000000
 ITry= 1 IFail=0 DXMaxC= 6.10D-01 DCOld= 1.00D+10 DXMaxT= 8.49D-01 DXLimC= 3.00D+00 Rises=F
 Variable       Old X    -DE/DX   Delta X   Delta X   Delta X     New X
                                 (Linear)    (Quad)   (Total)
    R1        2.09750   0.00132  -0.00174   0.00095  -0.00364   2.09386
    R2        2.09845   0.00102  -0.00082   0.00013  -0.00069   2.09776
    R3        2.09755   0.00131  -0.00170   0.00096  -0.00359   2.09396
    R4        3.29095   0.01005   0.00000   0.00000   0.00000   3.29095
    R5        5.66500  -0.00148  -0.40693  -0.23458  -0.64032   5.02468
    R6        5.66007  -0.00148  -0.40713  -0.23473  -0.64068   5.01940
    A1        1.91579   0.00034  -0.01230  -0.00282  -0.01665   1.89914
    A2        1.89817   0.00237  -0.02662  -0.00113  -0.03204   1.86613
    A3        1.91826  -0.00161   0.02263   0.00243   0.02765   1.94591
    A4        1.91569   0.00034  -0.01239  -0.00286  -0.01678   1.89891
    A5        1.89747   0.00018   0.00670   0.00188   0.00859   1.90606
    A6        1.91851  -0.00163   0.02283   0.00249   0.02792   1.94643
    A7        1.59902  -0.00212  -0.03542  -0.02711  -0.06876   1.53026
    A8        1.60139  -0.00211  -0.03535  -0.02707  -0.06866   1.53273
    A9        0.61171   0.00110   0.03652   0.02620   0.07148   0.68319
    D1        1.11827   0.00070  -0.07910  -0.02664  -0.10483   1.01344
    D2       -0.97780  -0.00137  -0.03897  -0.02076  -0.05697  -1.03478
    D3       -3.07881   0.00014  -0.06445  -0.02458  -0.08762   3.11676
    D4        0.97920   0.00136   0.03910   0.02082   0.05719   1.03639
    D5       -1.11693  -0.00070   0.07918   0.02667   0.10495  -1.01198
    D6        3.08005  -0.00013   0.06446   0.02460   0.08767  -3.11547
    D7        0.53138  -0.00033   0.02950   0.01114   0.04329   0.57467
    D8       -0.53141   0.00033  -0.02944  -0.01110  -0.04317  -0.57458
         Item               Value     Threshold  Converged?
 Maximum Force            0.002367     0.000450     NO 
 RMS     Force            0.001263     0.000300     NO 
 Maximum Displacement     0.610272     0.001800     NO 
 RMS     Displacement     0.156354     0.001200     NO 
 Predicted change in Energy=-1.873616D-03
 Lowest energy point so far.  Saving SCF results.
 GradGradGradGradGradGradGradGradGradGradGradGradGradGradGradGradGradGrad

 Leave Link  103 at Mon Nov  6 15:08:13 2017, MaxMem=   134217728 cpu:               0.0 elap:               0.0
 (Enter /n/sw/g16_nehalem/g16/l202.exe)
                          Input orientation:                          
 ---------------------------------------------------------------------
 Center     Atomic      Atomic             Coordinates (Angstroms)
 Number     Number       Type             X           Y           Z
 ---------------------------------------------------------------------
      1          6           0        0.046202   -0.025793   -0.449763
      2          1           0        0.003722    1.026865   -0.793010
      3          1           0        0.911287   -0.525495   -0.933728
      4          1           0       -0.886797   -0.514960   -0.793362
      5         17           0        0.220619   -0.126305    1.280059
      6         17           0       -0.172298    0.096192   -3.277535
 ---------------------------------------------------------------------
                    Distance matrix (angstroms):
                    1          2          3          4          5
     1  C    0.000000
     2  H    1.108021   0.000000
     3  H    1.110089   1.803690   0.000000
     4  H    1.108076   1.780519   1.803586   0.000000
     5  Cl   1.741496   2.382113   2.353132   2.382540   0.000000
     6  Cl   2.838824   2.658947   2.655952   2.656151   4.579908
                    6
     6  Cl   0.000000
 Stoichiometry    CH3Cl2(1-)
 Framework group  C1[X(CH3Cl2)]
 Deg. of freedom    12
 Full point group                 C1      NOp   1
 RotChk:  IX=2 Diff= 2.49D-02
 Largest Abelian subgroup         C1      NOp   1
 Largest concise Abelian subgroup C1      NOp   1
                         Standard orientation:                         
 ---------------------------------------------------------------------
 Center     Atomic      Atomic             Coordinates (Angstroms)
 Number     Number       Type             X           Y           Z
 ---------------------------------------------------------------------
      1          6           0        0.461264   -0.023098    0.000803
      2          1           0        0.065152   -0.556105    0.887770
      3          1           0        0.077713    1.018598    0.008310
      4          1           0        0.063253   -0.543735   -0.892705
      5         17           0        2.202492    0.007424   -0.000305
      6         17           0       -2.377416    0.005507   -0.000177
 ---------------------------------------------------------------------
 Rotational constants (GHZ):         154.9232642           1.3605792           1.3603337
 Leave Link  202 at Mon Nov  6 15:08:13 2017, MaxMem=   134217728 cpu:               0.0 elap:               0.0
 (Enter /n/sw/g16_nehalem/g16/l301.exe)
 Standard basis: VSTO-6G (5D, 7F)
 Ernie: Thresh=  0.10000D-02 Tol=  0.10000D-05 Strict=F.
  NNHCO=     0 NNPyr=     0 NCTC=     0               EPep=         0.000000000
    EC=        30.592674943  ECS=         0.515525531   EG=         0.111267327
   EHC=         0.000000000  EAt=       -33.052413022  AtH=         0.613817027
 EPDDG=         0.000000000  ECC=        31.219467801 EAtT=        33.666230050
 There are    15 symmetry adapted cartesian basis functions of A   symmetry.
 There are    15 symmetry adapted basis functions of A   symmetry.
    15 basis functions,    90 primitive gaussians,    15 cartesian basis functions
    11 alpha electrons       11 beta electrons
       nuclear repulsion energy        64.8856978503 Hartrees.
 IExCor=    0 DFT=F Ex=HF Corr=None ExCW=0 ScaHFX=  1.000000
 ScaDFX=  1.000000  1.000000  1.000000  1.000000 ScalE2=  1.000000  1.000000
 IRadAn=      5 IRanWt=     -1 IRanGd=            0 ICorTp=0 IEmpDi=  4
 Integral buffers will be    131072 words long.
 Regular integral format.
 Two-electron integral symmetry is turned off.
 Leave Link  301 at Mon Nov  6 15:08:13 2017, MaxMem=   134217728 cpu:               0.1 elap:               0.1
 (Enter /n/sw/g16_nehalem/g16/l302.exe)
 Do NDO integrals.
 NPDir=0 NMtPBC=     1 NCelOv=     1 NCel=       1 NClECP=     1 NCelD=      1
         NCelK=      1 NCelE2=     1 NClLst=     1 CellRange=     0.0.
 One-electron integrals computed using PRISM.
 NBasis=    15 RedAO= F EigKep=  0.00D+00  NBF=    15
 NBsUse=    15 1.00D-04 EigRej=  0.00D+00 NBFU=    15
 Leave Link  302 at Mon Nov  6 15:08:13 2017, MaxMem=   134217728 cpu:               0.1 elap:               0.1
 (Enter /n/sw/g16_nehalem/g16/l303.exe)
 DipDrv:  MaxL=1.
 Leave Link  303 at Mon Nov  6 15:08:13 2017, MaxMem=   134217728 cpu:               0.0 elap:               0.1
 (Enter /n/sw/g16_nehalem/g16/l401.exe)
 Initial guess from the checkpoint file:  "/scratch/dhuang9_MeCl_freeze/Gau-3144.chk"
 B after Tr=     0.000000    0.000000    0.000000
         Rot=    0.999961   -0.008761    0.000006   -0.000534 Ang=  -1.01 deg.
 Guess basis will be translated and rotated to current coordinates.
 JPrj=0 DoOrth=T DoCkMO=T.
 Leave Link  401 at Mon Nov  6 15:08:13 2017, MaxMem=   134217728 cpu:               0.1 elap:               0.1
 (Enter /n/sw/g16_nehalem/g16/l502.exe)
 Keep J ints in memory in canonical form, NReq=859725.
 FoFCou: FMM=F IPFlag=           0 FMFlag=           0 FMFlg1=           0
         NFxFlg=           0 DoJE=F BraDBF=F KetDBF=F FulRan=T
         wScrn=  0.000000 ICntrl=       600 IOpCl=  2 I1Cent=           0 NGrid=           0
         NMat0=    1 NMatS0=     33 NMatT0=    0 NMatD0=    1 NMtDS0=    0 NMtDT0=    0
 Symmetry not used in FoFCou.
 Two-electron integral symmetry not used.
 Closed shell SCF:
 Using DIIS extrapolation, IDIIS=  1040.
 Overlap will be assumed to be unity.
 NGot=   134217728 LenX=   134156826 LenY=   134155944
 Requested convergence on RMS density matrix=1.00D-08 within 128 cycles.
 Requested convergence on MAX density matrix=1.00D-06.
 Requested convergence on             energy=1.00D-06.
 No special actions if energy rises.

 Cycle   1  Pass 1  IDiag  1:
 E=-0.987889459691615E-01
 DIIS: error= 5.96D-03 at cycle   1 NSaved=   1.
 NSaved= 1 IEnMin= 1 EnMin=-0.987889459691615E-01 IErMin= 1 ErrMin= 5.96D-03
 ErrMax= 5.96D-03  0.00D+00 EMaxC= 1.00D-01 BMatC= 5.83D-04 BMatP= 5.83D-04
 IDIUse=3 WtCom= 9.40D-01 WtEn= 5.96D-02
 Coeff-Com:  0.100D+01
 Coeff-En:   0.100D+01
 Coeff:      0.100D+01
 GapD=    2.000 DampG=2.000 DampE=1.000 DampFc=2.0000 IDamp=-1.
 RMSDP=4.17D-03 MaxDP=1.76D-02              OVMax= 0.00D+00

 Cycle   2  Pass 1  IDiag  3:
 E=-0.101628972213661     Delta-E=       -0.002840026244 Rises=F Damp=F
 DIIS: error= 2.51D-03 at cycle   2 NSaved=   2.
 NSaved= 2 IEnMin= 2 EnMin=-0.101628972213661     IErMin= 2 ErrMin= 2.51D-03
 ErrMax= 2.51D-03  0.00D+00 EMaxC= 1.00D-01 BMatC= 1.02D-04 BMatP= 5.83D-04
 IDIUse=3 WtCom= 9.75D-01 WtEn= 2.51D-02
 Coeff-Com: -0.639D+00 0.164D+01
 Coeff-En:   0.000D+00 0.100D+01
 Coeff:     -0.623D+00 0.162D+01
 Gap=     0.333 Goal=   None    Shift=    0.000
 RMSDP=2.90D-03 MaxDP=1.19D-02 DE=-2.84D-03 OVMax= 1.91D-02

 Cycle   3  Pass 1  IDiag  3:
 E=-0.102279939198013     Delta-E=       -0.000650966984 Rises=F Damp=F
 DIIS: error= 3.72D-04 at cycle   3 NSaved=   3.
 NSaved= 3 IEnMin= 3 EnMin=-0.102279939198013     IErMin= 3 ErrMin= 3.72D-04
 ErrMax= 3.72D-04  0.00D+00 EMaxC= 1.00D-01 BMatC= 2.34D-06 BMatP= 1.02D-04
 IDIUse=3 WtCom= 9.96D-01 WtEn= 3.72D-03
 Coeff-Com:  0.248D+00-0.709D+00 0.146D+01
 Coeff-En:   0.000D+00 0.000D+00 0.100D+01
 Coeff:      0.248D+00-0.706D+00 0.146D+01
 Gap=     0.334 Goal=   None    Shift=    0.000
 RMSDP=4.04D-04 MaxDP=2.21D-03 DE=-6.51D-04 OVMax= 2.99D-03

 Cycle   4  Pass 1  IDiag  3:
 E=-0.102294597530388     Delta-E=       -0.000014658332 Rises=F Damp=F
 DIIS: error= 9.47D-05 at cycle   4 NSaved=   4.
 NSaved= 4 IEnMin= 4 EnMin=-0.102294597530388     IErMin= 4 ErrMin= 9.47D-05
 ErrMax= 9.47D-05  0.00D+00 EMaxC= 1.00D-01 BMatC= 1.24D-07 BMatP= 2.34D-06
 IDIUse=1 WtCom= 1.00D+00 WtEn= 0.00D+00
 Coeff-Com: -0.100D+00 0.289D+00-0.710D+00 0.152D+01
 Coeff:     -0.100D+00 0.289D+00-0.710D+00 0.152D+01
 Gap=     0.333 Goal=   None    Shift=    0.000
 RMSDP=1.04D-04 MaxDP=6.26D-04 DE=-1.47D-05 OVMax= 8.59D-04

 Cycle   5  Pass 1  IDiag  3:
 E=-0.102295524450028     Delta-E=       -0.000000926920 Rises=F Damp=F
 DIIS: error= 2.43D-05 at cycle   5 NSaved=   5.
 NSaved= 5 IEnMin= 5 EnMin=-0.102295524450028     IErMin= 5 ErrMin= 2.43D-05
 ErrMax= 2.43D-05  0.00D+00 EMaxC= 1.00D-01 BMatC= 8.89D-09 BMatP= 1.24D-07
 IDIUse=1 WtCom= 1.00D+00 WtEn= 0.00D+00
 Coeff-Com:  0.368D-01-0.105D+00 0.264D+00-0.772D+00 0.158D+01
 Coeff:      0.368D-01-0.105D+00 0.264D+00-0.772D+00 0.158D+01
 Gap=     0.333 Goal=   None    Shift=    0.000
 RMSDP=3.39D-05 MaxDP=1.93D-04 DE=-9.27D-07 OVMax= 3.36D-04

 Cycle   6  Pass 1  IDiag  3:
 E=-0.102295601776021     Delta-E=       -0.000000077326 Rises=F Damp=F
 DIIS: error= 4.29D-06 at cycle   6 NSaved=   6.
 NSaved= 6 IEnMin= 6 EnMin=-0.102295601776021     IErMin= 6 ErrMin= 4.29D-06
 ErrMax= 4.29D-06  0.00D+00 EMaxC= 1.00D-01 BMatC= 5.09D-10 BMatP= 8.89D-09
 IDIUse=1 WtCom= 1.00D+00 WtEn= 0.00D+00
 Coeff-Com: -0.682D-02 0.185D-01-0.493D-01 0.209D+00-0.668D+00 0.150D+01
 Coeff:     -0.682D-02 0.185D-01-0.493D-01 0.209D+00-0.668D+00 0.150D+01
 Gap=     0.333 Goal=   None    Shift=    0.000
 RMSDP=8.03D-06 MaxDP=3.97D-05 DE=-7.73D-08 OVMax= 7.61D-05

 Cycle   7  Pass 1  IDiag  3:
 E=-0.102295605886212     Delta-E=       -0.000000004110 Rises=F Damp=F
 DIIS: error= 7.19D-07 at cycle   7 NSaved=   7.
 NSaved= 7 IEnMin= 7 EnMin=-0.102295605886212     IErMin= 7 ErrMin= 7.19D-07
 ErrMax= 7.19D-07  0.00D+00 EMaxC= 1.00D-01 BMatC= 1.55D-11 BMatP= 5.09D-10
 IDIUse=1 WtCom= 1.00D+00 WtEn= 0.00D+00
 Coeff-Com:  0.105D-02-0.254D-02 0.692D-02-0.481D-01 0.185D+00-0.539D+00
 Coeff-Com:  0.140D+01
 Coeff:      0.105D-02-0.254D-02 0.692D-02-0.481D-01 0.185D+00-0.539D+00
 Coeff:      0.140D+01
 Gap=     0.333 Goal=   None    Shift=    0.000
 RMSDP=1.24D-06 MaxDP=4.58D-06 DE=-4.11D-09 OVMax= 1.04D-05

 Cycle   8  Pass 1  IDiag  3:
 E=-0.102295605988374     Delta-E=       -0.000000000102 Rises=F Damp=F
 DIIS: error= 1.74D-07 at cycle   8 NSaved=   8.
 NSaved= 8 IEnMin= 8 EnMin=-0.102295605988374     IErMin= 8 ErrMin= 1.74D-07
 ErrMax= 1.74D-07  0.00D+00 EMaxC= 1.00D-01 BMatC= 4.66D-13 BMatP= 1.55D-11
 IDIUse=1 WtCom= 1.00D+00 WtEn= 0.00D+00
 Coeff-Com: -0.421D-04-0.863D-04-0.853D-04 0.133D-01-0.639D-01 0.212D+00
 Coeff-Com: -0.679D+00 0.152D+01
 Coeff:     -0.421D-04-0.863D-04-0.853D-04 0.133D-01-0.639D-01 0.212D+00
 Coeff:     -0.679D+00 0.152D+01
 Gap=     0.333 Goal=   None    Shift=    0.000
 RMSDP=1.96D-07 MaxDP=9.45D-07 DE=-1.02D-10 OVMax= 8.76D-07

 Cycle   9  Pass 1  IDiag  3:
 E=-0.102295605991216     Delta-E=       -0.000000000003 Rises=F Damp=F
 DIIS: error= 2.33D-08 at cycle   9 NSaved=   9.
 NSaved= 9 IEnMin= 9 EnMin=-0.102295605991216     IErMin= 9 ErrMin= 2.33D-08
 ErrMax= 2.33D-08  0.00D+00 EMaxC= 1.00D-01 BMatC= 1.00D-14 BMatP= 4.66D-13
 IDIUse=1 WtCom= 1.00D+00 WtEn= 0.00D+00
 Coeff-Com: -0.333D-04 0.178D-03-0.321D-03-0.435D-02 0.234D-01-0.812D-01
 Coeff-Com:  0.274D+00-0.689D+00 0.148D+01
 Coeff:     -0.333D-04 0.178D-03-0.321D-03-0.435D-02 0.234D-01-0.812D-01
 Coeff:      0.274D+00-0.689D+00 0.148D+01
 Gap=     0.333 Goal=   None    Shift=    0.000
 RMSDP=3.07D-08 MaxDP=1.70D-07 DE=-2.84D-12 OVMax= 2.33D-07

 Cycle  10  Pass 1  IDiag  3:
 E=-0.102295605991230     Delta-E=        0.000000000000 Rises=F Damp=F
 DIIS: error= 3.51D-09 at cycle  10 NSaved=  10.
 NSaved=10 IEnMin=10 EnMin=-0.102295605991230     IErMin=10 ErrMin= 3.51D-09
 ErrMax= 3.51D-09  0.00D+00 EMaxC= 1.00D-01 BMatC= 3.08D-16 BMatP= 1.00D-14
 IDIUse=1 WtCom= 1.00D+00 WtEn= 0.00D+00
 Coeff-Com:  0.139D-04-0.723D-04 0.132D-03 0.170D-02-0.916D-02 0.318D-01
 Coeff-Com: -0.108D+00 0.275D+00-0.682D+00 0.149D+01
 Coeff:      0.139D-04-0.723D-04 0.132D-03 0.170D-02-0.916D-02 0.318D-01
 Coeff:     -0.108D+00 0.275D+00-0.682D+00 0.149D+01
 Gap=     0.333 Goal=   None    Shift=    0.000
 RMSDP=5.94D-09 MaxDP=3.49D-08 DE=-1.42D-14 OVMax= 4.88D-08

 Cycle  11  Pass 2  IDiag  1:
 SCF Done:  E(RAM1) = -0.102295605991     A.U. after   11 cycles
            NFock= 10  Conv=0.59D-08     -V/T= 0.9982
 KE=-5.723208197278D+01 PE=-6.235514431607D+01 EE= 5.459923283257D+01
[...]
 No special actions if energy rises.

 Cycle   1  Pass 1  IDiag  1:
 E=-0.103256336133640    
 DIIS: error= 1.23D-04 at cycle   1 NSaved=   1.
 NSaved= 1 IEnMin= 1 EnMin=-0.103256336133640     IErMin= 1 ErrMin= 1.23D-04
 ErrMax= 1.23D-04  0.00D+00 EMaxC= 1.00D-01 BMatC= 1.81D-07 BMatP= 1.81D-07
 IDIUse=3 WtCom= 9.99D-01 WtEn= 1.23D-03
 Coeff-Com:  0.100D+01
 Coeff-En:   0.100D+01
 Coeff:      0.100D+01
 RMSDP=6.03D-05 MaxDP=3.08D-04              OVMax= 0.00D+00

 Cycle   2  Pass 1  IDiag  3:
 E=-0.103257100006204     Delta-E=       -0.000000763873 Rises=F Damp=F
 DIIS: error= 5.22D-05 at cycle   2 NSaved=   2.
 NSaved= 2 IEnMin= 2 EnMin=-0.103257100006204     IErMin= 2 ErrMin= 5.22D-05
 ErrMax= 5.22D-05  0.00D+00 EMaxC= 1.00D-01 BMatC= 3.32D-08 BMatP= 1.81D-07
 IDIUse=1 WtCom= 1.00D+00 WtEn= 0.00D+00
 Coeff-Com: -0.685D+00 0.169D+01
 Coeff:     -0.685D+00 0.169D+01
 Gap=     0.329 Goal=   None    Shift=    0.000
 RMSDP=4.56D-05 MaxDP=2.16D-04 DE=-7.64D-07 OVMax= 2.95D-04

 Cycle   3  Pass 1  IDiag  3:
 E=-0.103257288822505     Delta-E=       -0.000000188816 Rises=F Damp=F
 DIIS: error= 4.84D-06 at cycle   3 NSaved=   3.
 NSaved= 3 IEnMin= 3 EnMin=-0.103257288822505     IErMin= 3 ErrMin= 4.84D-06
 ErrMax= 4.84D-06  0.00D+00 EMaxC= 1.00D-01 BMatC= 5.10D-10 BMatP= 3.32D-08
 IDIUse=1 WtCom= 1.00D+00 WtEn= 0.00D+00
 Coeff-Com:  0.253D+00-0.678D+00 0.142D+01
 Coeff:      0.253D+00-0.678D+00 0.142D+01
 Gap=     0.329 Goal=   None    Shift=    0.000
 RMSDP=5.71D-06 MaxDP=2.90D-05 DE=-1.89D-07 OVMax= 3.82D-05

 Cycle   4  Pass 1  IDiag  3:
 E=-0.103257291846347     Delta-E=       -0.000000003024 Rises=F Damp=F
 DIIS: error= 1.17D-06 at cycle   4 NSaved=   4.
 NSaved= 4 IEnMin= 4 EnMin=-0.103257291846347     IErMin= 4 ErrMin= 1.17D-06
 ErrMax= 1.17D-06  0.00D+00 EMaxC= 1.00D-01 BMatC= 2.39D-11 BMatP= 5.10D-10
 IDIUse=1 WtCom= 1.00D+00 WtEn= 0.00D+00
 Coeff-Com: -0.112D+00 0.306D+00-0.760D+00 0.157D+01
 Coeff:     -0.112D+00 0.306D+00-0.760D+00 0.157D+01
 Gap=     0.329 Goal=   None    Shift=    0.000
 RMSDP=1.43D-06 MaxDP=7.78D-06 DE=-3.02D-09 OVMax= 8.91D-06

 Cycle   5  Pass 1  IDiag  3:
 E=-0.103257292017588     Delta-E=       -0.000000000171 Rises=F Damp=F
 DIIS: error= 3.21D-07 at cycle   5 NSaved=   5.
 NSaved= 5 IEnMin= 5 EnMin=-0.103257292017588     IErMin= 5 ErrMin= 3.21D-07
 ErrMax= 3.21D-07  0.00D+00 EMaxC= 1.00D-01 BMatC= 1.40D-12 BMatP= 2.39D-11
 IDIUse=1 WtCom= 1.00D+00 WtEn= 0.00D+00
 Coeff-Com:  0.637D-01-0.174D+00 0.437D+00-0.103D+01 0.170D+01
 Coeff:      0.637D-01-0.174D+00 0.437D+00-0.103D+01 0.170D+01
 Gap=     0.329 Goal=   None    Shift=    0.000
 RMSDP=4.35D-07 MaxDP=2.58D-06 DE=-1.71D-10 OVMax= 3.44D-06

 Cycle   6  Pass 1  IDiag  3:
 E=-0.103257292030179     Delta-E=       -0.000000000013 Rises=F Damp=F
 DIIS: error= 4.78D-08 at cycle   6 NSaved=   6.
 NSaved= 6 IEnMin= 6 EnMin=-0.103257292030179     IErMin= 6 ErrMin= 4.78D-08
 ErrMax= 4.78D-08  0.00D+00 EMaxC= 1.00D-01 BMatC= 6.33D-14 BMatP= 1.40D-12
 IDIUse=1 WtCom= 1.00D+00 WtEn= 0.00D+00
 Coeff-Com: -0.239D-01 0.652D-01-0.164D+00 0.397D+00-0.831D+00 0.156D+01
 Coeff:     -0.239D-01 0.652D-01-0.164D+00 0.397D+00-0.831D+00 0.156D+01
 Gap=     0.329 Goal=   None    Shift=    0.000
 RMSDP=9.96D-08 MaxDP=5.06D-07 DE=-1.26D-11 OVMax= 7.60D-07

 Cycle   7  Pass 1  IDiag  3:
 E=-0.103257292030747     Delta-E=       -0.000000000001 Rises=F Damp=F
 DIIS: error= 2.93D-09 at cycle   7 NSaved=   7.
 NSaved= 7 IEnMin= 7 EnMin=-0.103257292030747     IErMin= 7 ErrMin= 2.93D-09
 ErrMax= 2.93D-09  0.00D+00 EMaxC= 1.00D-01 BMatC= 4.59D-16 BMatP= 6.33D-14
 IDIUse=1 WtCom= 1.00D+00 WtEn= 0.00D+00
 Coeff-Com:  0.764D-02-0.208D-01 0.523D-01-0.127D+00 0.270D+00-0.538D+00
 Coeff-Com:  0.136D+01
 Coeff:      0.764D-02-0.208D-01 0.523D-01-0.127D+00 0.270D+00-0.538D+00
 Coeff:      0.136D+01
 Gap=     0.329 Goal=   None    Shift=    0.000
 RMSDP=5.81D-09 MaxDP=1.75D-08 DE=-5.68D-13 OVMax= 2.34D-08

 Cycle   8  Pass 2  IDiag  1:
 SCF Done:  E(RAM1) = -0.103257292031     A.U. after    8 cycles
            NFock=  7  Conv=0.58D-08     -V/T= 0.9982
 KE=-5.723376988429D+01 PE=-6.166719137470D+01 EE= 5.423682931510D+01
 Leave Link  502 at Mon Nov  6 15:08:20 2017, MaxMem=   134217728 cpu:               0.1 elap:               0.1
 (Enter /n/sw/g16_nehalem/g16/l701.exe)
 ... and contract with generalized density number  0.
 Compute integral first derivatives.
 Leave Link  701 at Mon Nov  6 15:08:21 2017, MaxMem=   134217728 cpu:               0.1 elap:               0.1
 (Enter /n/sw/g16_nehalem/g16/l702.exe)
 L702 exits ... SP integral derivatives will be done elsewhere.
 Leave Link  702 at Mon Nov  6 15:08:21 2017, MaxMem=   134217728 cpu:               0.1 elap:               0.1
 (Enter /n/sw/g16_nehalem/g16/l703.exe)
 Integral derivatives from FoFJK, PRISM(SPDF).
 Compute integral first derivatives, UseDBF=F ICtDFT=           0.
 Calling FoFJK, ICntrl=      2127 FMM=F ISym2X=0 I1Cent= 0 IOpClX= 0 NMat=1 NMatS=1 NMatT=0.
 FoFJK:  IHMeth= 8 ICntrl=    2127 DoSepK=F KAlg= 0 I1Cent=           0 FoldK=F
 IRaf=         0 NMat=       1 IRICut=       1 DoRegI=T DoRafI=F ISym2E= 0 IDoP0=3 IntGTp=3.
 FoFCou: FMM=F IPFlag=           0 FMFlag=      100000 FMFlg1=         800
         NFxFlg=           0 DoJE=F BraDBF=F KetDBF=F FulRan=T
         wScrn=  0.000000 ICntrl=      2127 IOpCl=  0 I1Cent=           0 NGrid=           0
         NMat0=    1 NMatS0=      1 NMatT0=    0 NMatD0=    1 NMtDS0=    0 NMtDT0=    0
 Symmetry not used in FoFCou.
 Leave Link  703 at Mon Nov  6 15:08:21 2017, MaxMem=   134217728 cpu:               0.1 elap:               0.1
 (Enter /n/sw/g16_nehalem/g16/l716.exe)
 Dipole        = 3.47408709D+00-1.08262048D-04 5.67326599D-04
 ***** Axes restored to original set *****
 -------------------------------------------------------------------
 Center     Atomic                   Forces (Hartrees/Bohr)
 Number     Number              X              Y              Z
 -------------------------------------------------------------------
      1        6          -0.001383223    0.000794562   -0.016355104
      2        1           0.000004625   -0.000001885   -0.000002276
      3        1           0.000001358   -0.000000718   -0.000004723
      4        1           0.000001445   -0.000004884    0.000002396
      5       17           0.001375055   -0.000788598    0.016361010
      6       17           0.000000740    0.000001524   -0.000001302
 -------------------------------------------------------------------
 Cartesian Forces:  Max     0.016361010 RMS     0.005478389
 Leave Link  716 at Mon Nov  6 15:08:21 2017, MaxMem=   134217728 cpu:               0.0 elap:               0.1
 (Enter /n/sw/g16_nehalem/g16/l103.exe)

 GradGradGradGradGradGradGradGradGradGradGradGradGradGradGradGradGradGrad
 Berny optimization.
 Using GEDIIS/GDIIS optimizer.
 FormGI is forming the generalized inverse of G from B-inverse, IUseBI=4.
 Internal  Forces:  Max     0.016437619 RMS     0.003427481
 Search for a local minimum.
 Step number  13 out of a maximum of   33
 All quantities printed in internal units (Hartrees-Bohrs-Radians)
 RMS Force = .19734D-05 SwitMx=.10000D-02 MixMth= 2
 Mixed Optimization -- En-DIIS/RFO-DIIS
 Swapping is turned off.
 Update second derivatives using D2CorX and points    4    5    6    7    8
                                                      9   10   11   12   13
 DE= -3.26D-08 DEPred=-3.13D-08 R= 1.04D+00
 Trust test= 1.04D+00 RLast= 6.05D-03 DXMaxT set to 8.93D-01
 ITU=  0  1  1  1  1  1  1  1  1  0  1  1  0
     Eigenvalues ---    0.00136   0.00957   0.04290   0.06325   0.07878
     Eigenvalues ---    0.11298   0.11811   0.12404   0.29808   0.31528
     Eigenvalues ---    0.337231000.000001000.000001000.000001000.00000
     Eigenvalues --- 1000.000001000.000001000.000001000.000001000.00000
     Eigenvalues --- 1000.000001000.000001000.00000
 En-DIIS/RFO-DIIS/Sim-DIIS IScMMF=       -3 using points:    13   12   11   10    9    8    7    6
 RFO step:  Lambda=-2.70763804D-07.
 NNeg= 0 NGDIIS= 8 SimSw=  2.50D-01 Rises=F DC= -3.26D-08 SmlDif=  1.00D-05
 NRisDI= 0 DoIntr=F SqrtH=F CThrHd= 10.0 CDAdj=  3.0
 RMS Error=  0.7061549511D-04 NUsed= 8 OKEnD=F EnDIS=F
 InvSVX:  RCond= 1.53D-12 Info=           0 Equed=N FErr=  6.53D-08 BErr=  9.83D-17
 DIIS inversion failure, remove point   8.
 InvSVX:  RCond= 3.70D-12 Info=           0 Equed=N FErr=  3.26D-08 BErr=  8.43D-17
 DIIS inversion failure, remove point   7.
 InvSVX:  RCond= 1.45D-11 Info=           0 Equed=N FErr=  9.11D-09 BErr=  1.04D-16
 DIIS inversion failure, remove point   6.
 InvSVX:  RCond= 5.56D-10 Info=           0 Equed=N FErr=  2.46D-10 BErr=  9.14D-17
 DIIS inversion failure, remove point   5.
 InvSVX:  RCond= 2.25D-09 Info=           0 Equed=N FErr=  2.32D-12 BErr=  7.44D-17
 DIIS inversion failure, remove point   4.
 InvSVX:  RCond= 1.31D-07 Info=           0 Equed=N FErr=  1.58D-14 BErr=  8.73D-17
 RFO-DIIS uses    3 points instead of    8
 DidBck=F Rises=F RFO-DIIS coefs:    0.94125    0.07546   -0.01671    0.00000    0.00000
                  RFO-DIIS coefs:    0.00000    0.00000    0.00000
 Iteration  1 RMS(Cart)=  0.00005195 RMS(Int)=  0.00000017
 Iteration  2 RMS(Cart)=  0.00000000 RMS(Int)=  0.00000017
 Iteration  1 RMS(Cart)=  0.00000000 RMS(Int)=  0.00000000
 ITry= 1 IFail=0 DXMaxC= 1.13D-04 DCOld= 1.00D+10 DXMaxT= 8.93D-01 DXLimC= 3.00D+00 Rises=F
 Variable       Old X    -DE/DX   Delta X   Delta X   Delta X     New X
                                 (Linear)    (Quad)   (Total)
    R1        2.10062   0.00000   0.00000   0.00000   0.00000   2.10062
    R2        2.10061   0.00000   0.00000   0.00001   0.00001   2.10062
    R3        2.10064   0.00000   0.00000   0.00000   0.00000   2.10064
    R4        3.29095   0.01644   0.00000   0.00000   0.00000   3.29095
    R5        5.23588   0.00000   0.00019  -0.00004   0.00015   5.23603
    R6        5.23273   0.00000   0.00019   0.00004   0.00023   5.23297
    A1        1.92468   0.00000   0.00000  -0.00003  -0.00003   1.92465
    A2        1.92455   0.00000   0.00000   0.00004   0.00004   1.92459
    A3        1.89639   0.00000   0.00000   0.00000   0.00000   1.89639
    A4        1.92463   0.00000   0.00000  -0.00003  -0.00003   1.92459
    A5        1.89641   0.00000   0.00000   0.00002   0.00002   1.89643
    A6        1.89650   0.00000   0.00000   0.00000   0.00000   1.89649
    A7        1.50570   0.00000  -0.00002   0.00002   0.00000   1.50569
    A8        1.50715   0.00000  -0.00002  -0.00002  -0.00004   1.50711
    A9        0.67108   0.00000  -0.00003   0.00001  -0.00002   0.67107
    D1        1.06529   0.00000  -0.00006  -0.00002  -0.00008   1.06521
    D2       -1.06433   0.00000  -0.00006   0.00001  -0.00005  -1.06438
    D3       -3.14113   0.00000  -0.00005  -0.00002  -0.00007  -3.14120
    D4        1.06525   0.00000   0.00006  -0.00003   0.00002   1.06527
    D5       -1.06441   0.00000   0.00006   0.00000   0.00006  -1.06435
    D6       -3.14121   0.00000   0.00005  -0.00001   0.00005  -3.14116
    D7        0.55811   0.00000   0.00002  -0.00003  -0.00001   0.55810
    D8       -0.55804   0.00000  -0.00002   0.00003   0.00001  -0.55803
         Item               Value     Threshold  Converged?
 Maximum Force            0.000004     0.000450     YES
 RMS     Force            0.000002     0.000300     YES
 Maximum Displacement     0.000113     0.001800     YES
 RMS     Displacement     0.000052     0.001200     YES
 Predicted change in Energy=-5.928082D-10
 Optimization completed.
    -- Stationary point found.
                           ----------------------------
                           !   Optimized Parameters   !
                           ! (Angstroms and Degrees)  !
 --------------------------                            --------------------------
 ! Name  Definition              Value          Derivative Info.                !
 --------------------------------------------------------------------------------
 ! R1    R(1,2)                  1.1116         -DE/DX =    0.0                 !
 ! R2    R(1,3)                  1.1116         -DE/DX =    0.0                 !
 ! R3    R(1,4)                  1.1116         -DE/DX =    0.0                 !
 ! R4    R(1,5)                  1.7415         -DE/DX =    0.0164              !
 ! R5    R(2,6)                  2.7707         -DE/DX =    0.0                 !
 ! R6    R(4,6)                  2.769          -DE/DX =    0.0                 !
 ! A1    A(2,1,3)              110.2762         -DE/DX =    0.0                 !
 ! A2    A(2,1,4)              110.2684         -DE/DX =    0.0                 !
 ! A3    A(2,1,5)              108.655          -DE/DX =    0.0                 !
 ! A4    A(3,1,4)              110.2729         -DE/DX =    0.0                 !
 ! A5    A(3,1,5)              108.6563         -DE/DX =    0.0                 !
 ! A6    A(4,1,5)              108.6613         -DE/DX =    0.0                 !
 ! A7    A(1,2,6)               86.27           -DE/DX =    0.0                 !
 ! A8    A(1,4,6)               86.3536         -DE/DX =    0.0                 !
 ! A9    A(2,6,4)               38.4502         -DE/DX =    0.0                 !
 ! D1    D(3,1,2,6)             61.0366         -DE/DX =    0.0                 !
 ! D2    D(4,1,2,6)            -60.9818         -DE/DX =    0.0                 !
 ! D3    D(5,1,2,6)           -179.9734         -DE/DX =    0.0                 !
 ! D4    D(2,1,4,6)             61.0342         -DE/DX =    0.0                 !
 ! D5    D(3,1,4,6)            -60.9862         -DE/DX =    0.0                 !
 ! D6    D(5,1,4,6)           -179.9781         -DE/DX =    0.0                 !
 ! D7    D(1,2,6,4)             31.9771         -DE/DX =    0.0                 !
 ! D8    D(1,4,6,2)            -31.9734         -DE/DX =    0.0                 !
 --------------------------------------------------------------------------------
 Lowest energy point so far.  Saving SCF results.
 Largest change from initial coordinates is atom    3       0.348 Angstoms.
 GradGradGradGradGradGradGradGradGradGradGradGradGradGradGradGradGradGrad

 Leave Link  103 at Mon Nov  6 15:08:21 2017, MaxMem=   134217728 cpu:               0.0 elap:               0.0
 (Enter /n/sw/g16_nehalem/g16/l202.exe)
                          Input orientation:                          
 ---------------------------------------------------------------------
 Center     Atomic      Atomic             Coordinates (Angstroms)
 Number     Number       Type             X           Y           Z
 ---------------------------------------------------------------------
      1          6           0        0.051966   -0.029206   -0.455831
      2          1           0        0.024429    1.039845   -0.759199
      3          1           0        0.929953   -0.536415   -0.911378
      4          1           0       -0.887827   -0.539789   -0.758775
      5         17           0        0.197732   -0.112791    1.277540
      6         17           0       -0.193518    0.108861   -3.359696
 ---------------------------------------------------------------------
                    Distance matrix (angstroms):
                    1          2          3          4          5
     1  C    0.000000
     2  H    1.111603   0.000000
     3  H    1.111596   1.824207   0.000000
     4  H    1.111611   1.824132   1.824177   0.000000
     5  Cl   1.741496   2.346680   2.346692   2.346772   0.000000
     6  Cl   2.917491   2.770707   2.769987   2.769044   4.658987
                    6
     6  Cl   0.000000
 Stoichiometry    CH3Cl2(1-)
 Framework group  C1[X(CH3Cl2)]
 Deg. of freedom    12
 Full point group                 C1      NOp   1
 RotChk:  IX=2 Diff= 3.67D-10
 Largest Abelian subgroup         C1      NOp   1
 Largest concise Abelian subgroup C1      NOp   1
                         Standard orientation:                         
 ---------------------------------------------------------------------
 Center     Atomic      Atomic             Coordinates (Angstroms)
 Number     Number       Type             X           Y           Z
 ---------------------------------------------------------------------
      1          6           0        0.489739   -0.000100    0.000662
      2          1           0        0.134634   -0.704228    0.784094
      3          1           0        0.134182    1.030228    0.218947
      4          1           0        0.133559   -0.326455   -1.000491
      5         17           0        2.231234    0.000038   -0.000241
      6         17           0       -2.427753    0.000024   -0.000143
 ---------------------------------------------------------------------
 Rotational constants (GHZ):         150.6951839           1.3133544           1.3133539
 Leave Link  202 at Mon Nov  6 15:08:21 2017, MaxMem=   134217728 cpu:               0.0 elap:               0.0
 (Enter /n/sw/g16_nehalem/g16/l601.exe)
 Copying SCF densities to generalized density rwf, IOpCl= 0 IROHF=0.

 **********************************************************************

            Population analysis using the SCF density.

 **********************************************************************

 Orbital symmetries:
       Occupied  (A) (A) (A) (A) (A) (A) (A) (A) (A) (A) (A)
       Virtual   (A) (A) (A) (A)
 The electronic state is 1-A.
 Alpha  occ. eigenvalues --   -1.23108  -0.93920  -0.90010  -0.40299  -0.40297
 Alpha  occ. eigenvalues --   -0.39970  -0.27947  -0.27946  -0.12693  -0.12693
 Alpha  occ. eigenvalues --   -0.12483
 Alpha virt. eigenvalues --    0.20378   0.30715   0.30717   0.32868
          Condensed to atoms (all electrons):
               1          2          3          4          5          6
     1  C    4.129911   0.000000   0.000000   0.000000   0.000000   0.000000
     2  H    0.000000   0.883299   0.000000   0.000000   0.000000   0.000000
     3  H    0.000000   0.000000   0.883219   0.000000   0.000000   0.000000
     4  H    0.000000   0.000000   0.000000   0.883127   0.000000   0.000000
     5  Cl   0.000000   0.000000   0.000000   0.000000   7.236800   0.000000
     6  Cl   0.000000   0.000000   0.000000   0.000000   0.000000   7.983643
 Mulliken charges:
               1
     1  C   -0.129911
     2  H    0.116701
     3  H    0.116781
     4  H    0.116873
     5  Cl  -0.236800
     6  Cl  -0.983643
 Sum of Mulliken charges =  -1.00000
 Mulliken charges with hydrogens summed into heavy atoms:
               1
     1  C    0.220443
     5  Cl  -0.236800
     6  Cl  -0.983643
 Charge=             -1.0000 electrons
 Dipole moment (field-independent basis, Debye):
    X=              8.8302    Y=             -0.0003    Z=              0.0014  Tot=              8.8302
 N-N= 6.456087465185D+01 E-N=-6.166719138033D+01  KE=-5.723376988429D+01
 Leave Link  601 at Mon Nov  6 15:08:21 2017, MaxMem=   134217728 cpu:               0.1 elap:               0.1
 (Enter /n/sw/g16_nehalem/g16/l9999.exe)
 1\1\GINC-HOLYBIGMEM08\FOpt\RAM1\ZDO\C1H3Cl2(1-)\ROOT\06-Nov-2017\0\\#p
  opt=modredundant am1\\MeCl + Cl- frozen\\-1,1\C,0.0519656552,-0.02920
 60775,-0.4558311776\H,0.0244292181,1.0398452669,-0.7591985388\H,0.9299
 527602,-0.5364154979,-0.9113781559\H,-0.8878266018,-0.5397893697,-0.75
 87745617\Cl,0.1977320781,-0.1127913752,1.2775395173\Cl,-0.1935184697,0
 .1088611634,-3.3596959933\\Version=ES64L-G16RevA.03\State=1-A\HF=-0.10
 32573\RMSD=5.808e-09\RMSF=5.478e-03\Dipole=0.2920853,-0.1647244,3.4578
 654\PG=C01 [X(C1H3Cl2)]\\@


 IT IS BY EATING THE LIGHT OF A STAR THAT WE EXIST, 
 IN THE FINAL ANALYSIS, 
 JUST AS IT IS BY PERCEIVING THE LIGHT OF STARS
 THAT WE DEFINE THE WORLD AROUND US.

                                    -- GILBERT GROSVENOR
 Job cpu time:       0 days  0 hours  0 minutes 10.4 seconds.
 Elapsed time:       0 days  0 hours  0 minutes  9.7 seconds.
 File lengths (MBytes):  RWF=      6 Int=      0 D2E=      0 Chk=      2 Scr=      1
 Normal termination of Gaussian 16 at Mon Nov  6 15:08:21 2017.
