 Entering Gaussian System, Link 0=g16
 Input=MeCl_scan.gjf
 Output=MeCl_scan.out
 Initial command:
 /n/sw/g16_nehalem/g16/l1.exe "/scratch/dhuang9_MeCl_scan/Gau-39238.inp" -scrdir="/scratch/dhuang9_MeCl_scan/"
 Entering Link 1 = /n/sw/g16_nehalem/g16/l1.exe PID=     39239.
  
 Copyright (c) 1988,1990,1992,1993,1995,1998,2003,2009,2016,
            Gaussian, Inc.  All Rights Reserved.
  
 This is part of the Gaussian(R) 16 program.  It is based on
 the Gaussian(R) 09 system (copyright 2009, Gaussian, Inc.),
 the Gaussian(R) 03 system (copyright 2003, Gaussian, Inc.),
 the Gaussian(R) 98 system (copyright 1998, Gaussian, Inc.),
 the Gaussian(R) 94 system (copyright 1995, Gaussian, Inc.),
 the Gaussian 92(TM) system (copyright 1992, Gaussian, Inc.),
 the Gaussian 90(TM) system (copyright 1990, Gaussian, Inc.),
 the Gaussian 88(TM) system (copyright 1988, Gaussian, Inc.),
 the Gaussian 86(TM) system (copyright 1986, Carnegie Mellon
 University), and the Gaussian 82(TM) system (copyright 1983,
 Carnegie Mellon University). Gaussian is a federally registered
 trademark of Gaussian, Inc.
  
 This software contains proprietary and confidential information,
 including trade secrets, belonging to Gaussian, Inc.
  
 This software is provided under written license and may be
 used, copied, transmitted, or stored only in accord with that
 written license.
  
 The following legend is applicable only to US Government
 contracts under FAR:
  
                    RESTRICTED RIGHTS LEGEND
  
 Use, reproduction and disclosure by the US Government is
 subject to restrictions as set forth in subparagraphs (a)
 and (c) of the Commercial Computer Software - Restricted
 Rights clause in FAR 52.227-19.
  
 Gaussian, Inc.
 340 Quinnipiac St., Bldg. 40, Wallingford CT 06492
  
  
 ---------------------------------------------------------------
 Warning -- This program may not be used in any manner that
 competes with the business of Gaussian, Inc. or will provide
 assistance to any competitor of Gaussian, Inc.  The licensee
 of this program is prohibited from giving any competitor of
 Gaussian, Inc. access to this program.  By using this program,
 the user acknowledges that Gaussian, Inc. is engaged in the
 business of creating and licensing software in the field of
 computational chemistry and represents and warrants to the
 licensee that it is not a competitor of Gaussian, Inc. and that
 it will not use this program in any manner prohibited above.
 ---------------------------------------------------------------
  

 Cite this work as:
 Gaussian 16, Revision A.03,
 M. J. Frisch, G. W. Trucks, H. B. Schlegel, G. E. Scuseria, 
 M. A. Robb, J. R. Cheeseman, G. Scalmani, V. Barone, 
 G. A. Petersson, H. Nakatsuji, X. Li, M. Caricato, A. V. Marenich, 
 J. Bloino, B. G. Janesko, R. Gomperts, B. Mennucci, H. P. Hratchian, 
 J. V. Ortiz, A. F. Izmaylov, J. L. Sonnenberg, D. Williams-Young, 
 F. Ding, F. Lipparini, F. Egidi, J. Goings, B. Peng, A. Petrone, 
 T. Henderson, D. Ranasinghe, V. G. Zakrzewski, J. Gao, N. Rega, 
 G. Zheng, W. Liang, M. Hada, M. Ehara, K. Toyota, R. Fukuda, 
 J. Hasegawa, M. Ishida, T. Nakajima, Y. Honda, O. Kitao, H. Nakai, 
 T. Vreven, K. Throssell, J. A. Montgomery, Jr., J. E. Peralta, 
 F. Ogliaro, M. J. Bearpark, J. J. Heyd, E. N. Brothers, K. N. Kudin, 
 V. N. Staroverov, T. A. Keith, R. Kobayashi, J. Normand, 
 K. Raghavachari, A. P. Rendell, J. C. Burant, S. S. Iyengar, 
 J. Tomasi, M. Cossi, J. M. Millam, M. Klene, C. Adamo, R. Cammi, 
 J. W. Ochterski, R. L. Martin, K. Morokuma, O. Farkas, 
 J. B. Foresman, and D. J. Fox, Gaussian, Inc., Wallingford CT, 2016.
 
 ******************************************
 Gaussian 16:  ES64L-G16RevA.03 25-Dec-2016
                 6-Nov-2017 
 ******************************************
 %mem=1GB
 -----------------------
 #p am1 opt=modredundant
 -----------------------
 1/18=120,19=15,26=1,38=1/1,3;
 2/9=110,12=2,17=6,18=5,40=1/2;
 3/5=2,25=1,41=700000,71=1/1,2,3;
 4/35=1/1;
 5/5=2,35=1,38=5/2;
 6/7=2,8=2,9=2,10=2,28=1/1;
 7//1,2,3,16;
 1/18=20,19=15,26=1/3(2);
 2/9=110/2;
 99//99;
 2/9=110/2;
 3/5=2,25=1,41=700000,71=1,135=20/1,2,3;
 4/5=5,16=3,35=1/1;
 5/5=2,35=1,38=5/2;
 7//1,2,3,16;
 1/18=20,19=15,26=1/3(-5);
 2/9=110/2;
 6/7=2,8=2,9=2,10=2,19=2,28=1/1;
 99/9=1/99;
 Leave Link    1 at Mon Nov  6 15:28:33 2017, MaxMem=   134217728 cpu:               0.0 elap:               0.1
 (Enter /n/sw/g16_nehalem/g16/l101.exe)
 ---------
 MeCl scan
 ---------
 Symbolic Z-matrix:
 Charge = -1 Multiplicity = 1
 C                     0.48974  -0.0001    0.00066 
 H                     0.13463  -0.70423   0.78409 
 H                     0.13418   1.03023   0.21895 
 H                     0.13356  -0.32646  -1.00049 
 Cl                    2.23123   0.00004  -0.00024 
 Cl                   -2.42775   0.00002  -0.00014 
 
 Add virtual bond connecting atoms Cl6        and C1         Dist= 5.51D+00.
 Add virtual bond connecting atoms Cl6        and H2         Dist= 5.24D+00.
 Add virtual bond connecting atoms Cl6        and H3         Dist= 5.23D+00.
 Add virtual bond connecting atoms Cl6        and H4         Dist= 5.23D+00.
 The following ModRedundant input section has been read:
 B       1       6 S  40 -0.050                                                
 
 Add atom      6 valence  4 ND=      0 dihedral       3      2      6      1
 Add atom      6 valence  4 ND=      0 dihedral       4      2      6      1
 Add atom      6 valence  4 ND=      0 dihedral       4      3      6      1
 ITRead=  0  0  0  0  0  0
 MicOpt= -1 -1 -1 -1 -1 -1
 NAtoms=      6 NQM=        6 NQMF=       0 NMMI=      0 NMMIF=      0
                NMic=       0 NMicF=      0.
                    Isotopes and Nuclear Properties:
 (Nuclear quadrupole moments (NQMom) in fm**2, nuclear magnetic moments (NMagM)
  in nuclear magnetons)

  Atom         1           2           3           4           5           6
 IAtWgt=          12           1           1           1          35          35
 AtmWgt=  12.0000000   1.0078250   1.0078250   1.0078250  34.9688527  34.9688527
 NucSpn=           0           1           1           1           3           3
 AtZEff=   0.0000000   0.0000000   0.0000000   0.0000000   0.0000000   0.0000000
 NQMom=    0.0000000   0.0000000   0.0000000   0.0000000  -8.1650000  -8.1650000
 NMagM=    0.0000000   2.7928460   2.7928460   2.7928460   0.8218740   0.8218740
 AtZNuc=   6.0000000   1.0000000   1.0000000   1.0000000  17.0000000  17.0000000
 Leave Link  101 at Mon Nov  6 15:28:34 2017, MaxMem=   134217728 cpu:               0.3 elap:               0.3
 (Enter /n/sw/g16_nehalem/g16/l103.exe)

 GradGradGradGradGradGradGradGradGradGradGradGradGradGradGradGradGradGrad
 Berny optimization.
 Initialization pass.
                           ----------------------------
                           !    Initial Parameters    !
                           ! (Angstroms and Degrees)  !
 --------------------------                            --------------------------
 ! Name  Definition              Value          Derivative Info.                !
 --------------------------------------------------------------------------------
 ! R1    R(1,2)                  1.1116         estimate D2E/DX2                !
 ! R2    R(1,3)                  1.1116         estimate D2E/DX2                !
 ! R3    R(1,4)                  1.1116         estimate D2E/DX2                !
 ! R4    R(1,5)                  1.7415         estimate D2E/DX2                !
 ! R5    R(1,6)                  2.9175         Scan                            !
 ! R6    R(2,6)                  2.7707         estimate D2E/DX2                !
 ! R7    R(3,6)                  2.77           estimate D2E/DX2                !
 ! R8    R(4,6)                  2.769          estimate D2E/DX2                !
 ! A1    A(2,1,3)              110.2762         estimate D2E/DX2                !
 ! A2    A(2,1,4)              110.2684         estimate D2E/DX2                !
 ! A3    A(2,1,5)              108.655          estimate D2E/DX2                !
 ! A4    A(3,1,4)              110.2729         estimate D2E/DX2                !
 ! A5    A(3,1,5)              108.6563         estimate D2E/DX2                !
 ! A6    A(4,1,5)              108.6614         estimate D2E/DX2                !
 ! A7    A(2,6,3)               38.445          estimate D2E/DX2                !
 ! A8    A(2,6,4)               38.4502         estimate D2E/DX2                !
 ! A9    A(3,6,4)               38.4564         estimate D2E/DX2                !
 ! A10   L(5,1,6,2,-1)         180.0385         estimate D2E/DX2                !
 ! A11   L(5,1,6,2,-2)         180.0266         estimate D2E/DX2                !
 ! D1    D(2,1,4,3)            122.0204         estimate D2E/DX2                !
 ! D2    D(2,1,5,3)           -120.0023         estimate D2E/DX2                !
 ! D3    D(2,1,5,4)            119.9958         estimate D2E/DX2                !
 ! D4    D(3,1,5,4)           -120.002          estimate D2E/DX2                !
 ! D5    D(3,2,6,1)             31.9856         estimate D2E/DX2                !
 ! D6    D(4,2,6,1)            -31.977          estimate D2E/DX2                !
 ! D7    D(4,3,6,1)             31.9624         estimate D2E/DX2                !
 --------------------------------------------------------------------------------
 Trust Radius=3.00D-01 FncErr=1.00D-07 GrdErr=1.00D-07 EigMax=2.50D+02 EigMin=1.00D-04
 Number of optimizations in scan=  41
 Number of steps in this run=     36 maximum allowed number of steps=    100.
 GradGradGradGradGradGradGradGradGradGradGradGradGradGradGradGradGradGrad

 Leave Link  103 at Mon Nov  6 15:28:34 2017, MaxMem=   134217728 cpu:               0.0 elap:               0.0
 (Enter /n/sw/g16_nehalem/g16/l202.exe)
                          Input orientation:                          
 ---------------------------------------------------------------------
 Center     Atomic      Atomic             Coordinates (Angstroms)
 Number     Number       Type             X           Y           Z
 ---------------------------------------------------------------------
      1          6           0        0.489739   -0.000100    0.000662
      2          1           0        0.134634   -0.704228    0.784094
      3          1           0        0.134182    1.030228    0.218947
      4          1           0        0.133559   -0.326455   -1.000491
      5         17           0        2.231234    0.000038   -0.000241
      6         17           0       -2.427753    0.000024   -0.000143
 ---------------------------------------------------------------------
                    Distance matrix (angstroms):
                    1          2          3          4          5
     1  C    0.000000
     2  H    1.111603   0.000000
     3  H    1.111596   1.824206   0.000000
     4  H    1.111611   1.824132   1.824176   0.000000
     5  Cl   1.741495   2.346679   2.346692   2.346772   0.000000
     6  Cl   2.917492   2.770709   2.769988   2.769044   4.658987
                    6
     6  Cl   0.000000
 This structure is nearly, but not quite of a higher symmetry.
 Consider Symm=Loose if the higher symmetry is desired.
 Stoichiometry    CH3Cl2(1-)
 Framework group  C1[X(CH3Cl2)]
 Deg. of freedom    12
 Full point group                 C1      NOp   1
 Largest Abelian subgroup         C1      NOp   1
 Largest concise Abelian subgroup C1      NOp   1
                         Standard orientation:                         
 ---------------------------------------------------------------------
 Center     Atomic      Atomic             Coordinates (Angstroms)
 Number     Number       Type             X           Y           Z
 ---------------------------------------------------------------------
      1          6           0        0.000680    0.002921   -0.489731
      2          1           0        0.779734   -0.708213   -0.138982
      3          1           0        0.225312    1.029665   -0.127816
      4          1           0       -1.002483   -0.319437   -0.135573
      5         17           0       -0.000156    0.013823   -2.231192
      6         17           0       -0.000235   -0.014972    2.427706
 ---------------------------------------------------------------------
 Rotational constants (GHZ):         150.6952240           1.3133544           1.3133539
 Leave Link  202 at Mon Nov  6 15:28:34 2017, MaxMem=   134217728 cpu:               0.0 elap:               0.0
 (Enter /n/sw/g16_nehalem/g16/l301.exe)
 Standard basis: VSTO-6G (5D, 7F)
 Ernie: Thresh=  0.10000D-02 Tol=  0.10000D-05 Strict=F.
  NNHCO=     0 NNPyr=     0 NCTC=     0               EPep=         0.000000000
    EC=        30.273793034  ECS=         0.510228629   EG=         0.110625225
   EHC=         0.000000000  EAt=       -33.052413022  AtH=         0.613817027
 EPDDG=         0.000000000  ECC=        30.894646888 EAtT=        33.666230050
 There are    15 symmetry adapted cartesian basis functions of A   symmetry.
 There are    15 symmetry adapted basis functions of A   symmetry.
    15 basis functions,    90 primitive gaussians,    15 cartesian basis functions
    11 alpha electrons       11 beta electrons
       nuclear repulsion energy        64.5608769378 Hartrees.
 IExCor=    0 DFT=F Ex=HF Corr=None ExCW=0 ScaHFX=  1.000000
 ScaDFX=  1.000000  1.000000  1.000000  1.000000 ScalE2=  1.000000  1.000000
 IRadAn=      5 IRanWt=     -1 IRanGd=            0 ICorTp=0 IEmpDi=  4
 Integral buffers will be    131072 words long.
 Regular integral format.
 Two-electron integral symmetry is turned off.
 Leave Link  301 at Mon Nov  6 15:28:34 2017, MaxMem=   134217728 cpu:               0.1 elap:               0.1
 (Enter /n/sw/g16_nehalem/g16/l302.exe)
 Do NDO integrals.
 NPDir=0 NMtPBC=     1 NCelOv=     1 NCel=       1 NClECP=     1 NCelD=      1
         NCelK=      1 NCelE2=     1 NClLst=     1 CellRange=     0.0.
 One-electron integrals computed using PRISM.
 NBasis=    15 RedAO= F EigKep=  0.00D+00  NBF=    15
 NBsUse=    15 1.00D-04 EigRej=  0.00D+00 NBFU=    15
 Leave Link  302 at Mon Nov  6 15:28:34 2017, MaxMem=   134217728 cpu:               0.1 elap:               0.2
 (Enter /n/sw/g16_nehalem/g16/l303.exe)
 DipDrv:  MaxL=1.
 Leave Link  303 at Mon Nov  6 15:28:35 2017, MaxMem=   134217728 cpu:               0.1 elap:               0.1
 (Enter /n/sw/g16_nehalem/g16/l401.exe)
 Simple Huckel Guess.
 JPrj=0 DoOrth=F DoCkMO=F.
 Leave Link  401 at Mon Nov  6 15:28:35 2017, MaxMem=   134217728 cpu:               0.1 elap:               0.2
 (Enter /n/sw/g16_nehalem/g16/l502.exe)
 Keep J ints in memory in canonical form, NReq=859737.
 FoFCou: FMM=F IPFlag=           0 FMFlag=           0 FMFlg1=           0
         NFxFlg=           0 DoJE=F BraDBF=F KetDBF=F FulRan=T
         wScrn=  0.000000 ICntrl=       600 IOpCl=  2 I1Cent=           0 NGrid=           0
         NMat0=    1 NMatS0=     33 NMatT0=    0 NMatD0=    1 NMtDS0=    0 NMtDT0=    0
 Symmetry not used in FoFCou.
 Two-electron integral symmetry not used.
 Closed shell SCF:
 Using DIIS extrapolation, IDIIS=  1040.
 Overlap will be assumed to be unity.
 NGot=   134217728 LenX=   134156814 LenY=   134155932
 Requested convergence on RMS density matrix=1.00D-08 within 128 cycles.
 Requested convergence on MAX density matrix=1.00D-06.
 Requested convergence on             energy=1.00D-06.
 No special actions if energy rises.

 Cycle   1  Pass 1  IDiag  1:
 E= 0.134221825952949    
 DIIS: error= 1.13D-01 at cycle   1 NSaved=   1.
 NSaved= 1 IEnMin= 1 EnMin= 0.134221825952949     IErMin= 1 ErrMin= 1.13D-01
 ErrMax= 1.13D-01  0.00D+00 EMaxC= 1.00D-01 BMatC= 1.11D-01 BMatP= 1.11D-01
 IDIUse=3 WtCom= 0.00D+00 WtEn= 1.00D+00
 Coeff-Com:  0.100D+01
 Coeff-En:   0.100D+01
 Coeff:      0.100D+01
 GapD=    2.000 DampG=2.000 DampE=0.250 DampFc=0.5000 IDamp=-1.
 Damping current iteration by 5.00D-01
 RMSDP=2.60D-02 MaxDP=1.45D-01              OVMax= 0.00D+00

 Cycle   2  Pass 1  IDiag  1:
 E= 0.313248338963064E-01 Delta-E=       -0.102896992057 Rises=F Damp=T
 DIIS: error= 6.81D-02 at cycle   2 NSaved=   2.
 NSaved= 2 IEnMin= 2 EnMin= 0.313248338963064E-01 IErMin= 2 ErrMin= 6.81D-02
 ErrMax= 6.81D-02  0.00D+00 EMaxC= 1.00D-01 BMatC= 4.13D-02 BMatP= 1.11D-01
 IDIUse=3 WtCom= 3.19D-01 WtEn= 6.81D-01
 Coeff-Com: -0.156D+01 0.256D+01
 Coeff-En:   0.000D+00 0.100D+01
 Coeff:     -0.500D+00 0.150D+01
 RMSDP=1.71D-02 MaxDP=9.66D-02 DE=-1.03D-01 OVMax= 0.00D+00

 Cycle   3  Pass 1  IDiag  1:
 E=-0.101519796710761     Delta-E=       -0.132844630607 Rises=F Damp=F
 DIIS: error= 8.77D-03 at cycle   3 NSaved=   3.
 NSaved= 3 IEnMin= 3 EnMin=-0.101519796710761     IErMin= 3 ErrMin= 8.77D-03
 ErrMax= 8.77D-03  0.00D+00 EMaxC= 1.00D-01 BMatC= 8.54D-04 BMatP= 4.13D-02
 IDIUse=3 WtCom= 9.12D-01 WtEn= 8.77D-02
 Coeff-Com:  0.675D+00-0.134D+01 0.166D+01
 Coeff-En:   0.000D+00 0.000D+00 0.100D+01
 Coeff:      0.616D+00-0.122D+01 0.161D+01
 RMSDP=2.77D-03 MaxDP=1.73D-02 DE=-1.33D-01 OVMax= 0.00D+00

 Cycle   4  Pass 1  IDiag  3:
 E=-0.103248223412720     Delta-E=       -0.001728426702 Rises=F Damp=F
 DIIS: error= 2.72D-04 at cycle   4 NSaved=   4.
 NSaved= 4 IEnMin= 4 EnMin=-0.103248223412720     IErMin= 4 ErrMin= 2.72D-04
 ErrMax= 2.72D-04  0.00D+00 EMaxC= 1.00D-01 BMatC= 2.10D-06 BMatP= 8.54D-04
 IDIUse=3 WtCom= 9.97D-01 WtEn= 2.72D-03
 Coeff-Com: -0.153D+00 0.311D+00-0.466D+00 0.131D+01
 Coeff-En:   0.000D+00 0.000D+00 0.000D+00 0.100D+01
 Coeff:     -0.152D+00 0.310D+00-0.465D+00 0.131D+01
 Gap=     0.328 Goal=   None    Shift=    0.000
 RMSDP=2.56D-04 MaxDP=1.13D-03 DE=-1.73D-03 OVMax= 1.46D-03

 Cycle   5  Pass 1  IDiag  3:
 E=-0.103256893641913     Delta-E=       -0.000008670229 Rises=F Damp=F
 DIIS: error= 5.21D-05 at cycle   5 NSaved=   5.
 NSaved= 5 IEnMin= 5 EnMin=-0.103256893641913     IErMin= 5 ErrMin= 5.21D-05
 ErrMax= 5.21D-05  0.00D+00 EMaxC= 1.00D-01 BMatC= 6.54D-08 BMatP= 2.10D-06
 IDIUse=1 WtCom= 1.00D+00 WtEn= 0.00D+00
 Coeff-Com:  0.811D-02-0.179D-01 0.401D-01-0.323D+00 0.129D+01
 Coeff:      0.811D-02-0.179D-01 0.401D-01-0.323D+00 0.129D+01
 Gap=     0.329 Goal=   None    Shift=    0.000
 RMSDP=6.31D-05 MaxDP=3.59D-04 DE=-8.67D-06 OVMax= 4.05D-04

 Cycle   6  Pass 1  IDiag  3:
 E=-0.103257261225494     Delta-E=       -0.000000367584 Rises=F Damp=F
 DIIS: error= 6.55D-06 at cycle   6 NSaved=   6.
 NSaved= 6 IEnMin= 6 EnMin=-0.103257261225494     IErMin= 6 ErrMin= 6.55D-06
 ErrMax= 6.55D-06  0.00D+00 EMaxC= 1.00D-01 BMatC= 1.24D-09 BMatP= 6.54D-08
 IDIUse=1 WtCom= 1.00D+00 WtEn= 0.00D+00
 Coeff-Com: -0.177D-02 0.393D-02-0.962D-02 0.110D+00-0.559D+00 0.146D+01
 Coeff:     -0.177D-02 0.393D-02-0.962D-02 0.110D+00-0.559D+00 0.146D+01
 Gap=     0.329 Goal=   None    Shift=    0.000
 RMSDP=9.41D-06 MaxDP=4.15D-05 DE=-3.68D-07 OVMax= 6.67D-05

 Cycle   7  Pass 1  IDiag  3:
 E=-0.103257268244903     Delta-E=       -0.000000007019 Rises=F Damp=F
 DIIS: error= 1.09D-06 at cycle   7 NSaved=   7.
 NSaved= 7 IEnMin= 7 EnMin=-0.103257268244903     IErMin= 7 ErrMin= 1.09D-06
 ErrMax= 1.09D-06  0.00D+00 EMaxC= 1.00D-01 BMatC= 2.85D-11 BMatP= 1.24D-09
 IDIUse=1 WtCom= 1.00D+00 WtEn= 0.00D+00
 Coeff-Com: -0.670D-03 0.132D-02-0.141D-02-0.116D-01 0.994D-01-0.376D+00
 Coeff-Com:  0.129D+01
 Coeff:     -0.670D-03 0.132D-02-0.141D-02-0.116D-01 0.994D-01-0.376D+00
 Coeff:      0.129D+01
 Gap=     0.329 Goal=   None    Shift=    0.000
 RMSDP=1.20D-06 MaxDP=6.00D-06 DE=-7.02D-09 OVMax= 6.41D-06

 Cycle   8  Pass 1  IDiag  3:
 E=-0.103257268397471     Delta-E=       -0.000000000153 Rises=F Damp=F
 DIIS: error= 2.18D-07 at cycle   8 NSaved=   8.
 NSaved= 8 IEnMin= 8 EnMin=-0.103257268397471     IErMin= 8 ErrMin= 2.18D-07
 ErrMax= 2.18D-07  0.00D+00 EMaxC= 1.00D-01 BMatC= 1.48D-12 BMatP= 2.85D-11
 IDIUse=1 WtCom= 1.00D+00 WtEn= 0.00D+00
 Coeff-Com:  0.804D-04-0.152D-03 0.236D-04 0.769D-02-0.541D-01 0.192D+00
 Coeff-Com: -0.737D+00 0.159D+01
 Coeff:      0.804D-04-0.152D-03 0.236D-04 0.769D-02-0.541D-01 0.192D+00
 Coeff:     -0.737D+00 0.159D+01
 Gap=     0.329 Goal=   None    Shift=    0.000
 RMSDP=3.87D-07 MaxDP=1.90D-06 DE=-1.53D-10 OVMax= 2.85D-06

 Cycle   9  Pass 1  IDiag  3:
 E=-0.103257268407788     Delta-E=       -0.000000000010 Rises=F Damp=F
 DIIS: error= 2.89D-08 at cycle   9 NSaved=   9.
 NSaved= 9 IEnMin= 9 EnMin=-0.103257268407788     IErMin= 9 ErrMin= 2.89D-08
 ErrMax= 2.89D-08  0.00D+00 EMaxC= 1.00D-01 BMatC= 3.34D-14 BMatP= 1.48D-12
 IDIUse=1 WtCom= 1.00D+00 WtEn= 0.00D+00
 Coeff-Com:  0.892D-06-0.256D-05 0.483D-04-0.269D-02 0.185D-01-0.657D-01
 Coeff-Com:  0.264D+00-0.673D+00 0.146D+01
 Coeff:      0.892D-06-0.256D-05 0.483D-04-0.269D-02 0.185D-01-0.657D-01
 Coeff:      0.264D+00-0.673D+00 0.146D+01
 Gap=     0.329 Goal=   None    Shift=    0.000
 RMSDP=5.41D-08 MaxDP=1.98D-07 DE=-1.03D-11 OVMax= 3.21D-07

 Cycle  10  Pass 1  IDiag  3:
 E=-0.103257268407930     Delta-E=        0.000000000000 Rises=F Damp=F
 DIIS: error= 3.19D-09 at cycle  10 NSaved=  10.
 NSaved=10 IEnMin=10 EnMin=-0.103257268407930     IErMin=10 ErrMin= 3.19D-09
 ErrMax= 3.19D-09  0.00D+00 EMaxC= 1.00D-01 BMatC= 2.94D-16 BMatP= 3.34D-14
 IDIUse=1 WtCom= 1.00D+00 WtEn= 0.00D+00
 Coeff-Com:  0.862D-07 0.125D-06-0.266D-04 0.165D-02-0.114D-01 0.408D-01
 Coeff-Com: -0.165D+00 0.422D+00-0.931D+00 0.164D+01
 Coeff:      0.862D-07 0.125D-06-0.266D-04 0.165D-02-0.114D-01 0.408D-01
 Coeff:     -0.165D+00 0.422D+00-0.931D+00 0.164D+01
 Gap=     0.329 Goal=   None    Shift=    0.000
 RMSDP=5.50D-09 MaxDP=2.42D-08 DE=-1.42D-13 OVMax= 2.85D-08

 Cycle  11  Pass 2  IDiag  1:
 SCF Done:  E(RAM1) = -0.103257268408     A.U. after   11 cycles
            NFock= 10  Conv=0.55D-08     -V/T= 0.9982
 KE=-5.723376959930D+01 PE=-6.166719514756D+01 EE= 5.423683054064D+01
 Leave Link  502 at Mon Nov  6 15:28:35 2017, MaxMem=   134217728 cpu:               0.1 elap:               0.2
 (Enter /n/sw/g16_nehalem/g16/l601.exe)
 Copying SCF densities to generalized density rwf, IOpCl= 0 IROHF=0.

 **********************************************************************

            Population analysis using the SCF density.

 **********************************************************************

 Orbital symmetries:
       Occupied  (A) (A) (A) (A) (A) (A) (A) (A) (A) (A) (A)
       Virtual   (A) (A) (A) (A)
 The electronic state is 1-A.
 Alpha  occ. eigenvalues --   -1.23108  -0.93920  -0.90010  -0.40299  -0.40297
 Alpha  occ. eigenvalues --   -0.39970  -0.27947  -0.27946  -0.12693  -0.12693
 Alpha  occ. eigenvalues --   -0.12483
 Alpha virt. eigenvalues --    0.20378   0.30715   0.30717   0.32868
          Condensed to atoms (all electrons):
               1          2          3          4          5          6
     1  C    4.129911   0.000000   0.000000   0.000000   0.000000   0.000000
     2  H    0.000000   0.883300   0.000000   0.000000   0.000000   0.000000
     3  H    0.000000   0.000000   0.883219   0.000000   0.000000   0.000000
     4  H    0.000000   0.000000   0.000000   0.883127   0.000000   0.000000
     5  Cl   0.000000   0.000000   0.000000   0.000000   7.236800   0.000000
     6  Cl   0.000000   0.000000   0.000000   0.000000   0.000000   7.983643
 Mulliken charges:
               1
     1  C   -0.129911
     2  H    0.116700
     3  H    0.116781
     4  H    0.116873
     5  Cl  -0.236800
     6  Cl  -0.983643
 Sum of Mulliken charges =  -1.00000
 Mulliken charges with hydrogens summed into heavy atoms:
               1
     1  C    0.220443
     5  Cl  -0.236800
     6  Cl  -0.983643
 Charge=             -1.0000 electrons
 Dipole moment (field-independent basis, Debye):
    X=              0.0018    Y=              0.0543    Z=             -8.8301  Tot=              8.8303
 N-N= 6.456087693781D+01 E-N=-6.166719515859D+01  KE=-5.723376959930D+01
 Leave Link  601 at Mon Nov  6 15:28:35 2017, MaxMem=   134217728 cpu:               0.1 elap:               0.1
 (Enter /n/sw/g16_nehalem/g16/l701.exe)
 ... and contract with generalized density number  0.
 Compute integral first derivatives.
 Leave Link  701 at Mon Nov  6 15:28:36 2017, MaxMem=   134217728 cpu:               0.1 elap:               0.2
 (Enter /n/sw/g16_nehalem/g16/l702.exe)
 L702 exits ... SP integral derivatives will be done elsewhere.
 Leave Link  702 at Mon Nov  6 15:28:36 2017, MaxMem=   134217728 cpu:               0.0 elap:               0.1
 (Enter /n/sw/g16_nehalem/g16/l703.exe)
 Integral derivatives from FoFJK, PRISM(SPDF).
 Compute integral first derivatives, UseDBF=F ICtDFT=           0.
 Calling FoFJK, ICntrl=      2127 FMM=F ISym2X=0 I1Cent= 0 IOpClX= 0 NMat=1 NMatS=1 NMatT=0.
 FoFJK:  IHMeth= 8 ICntrl=    2127 DoSepK=F KAlg= 0 I1Cent=           0 FoldK=F
 IRaf=         0 NMat=       1 IRICut=       1 DoRegI=T DoRafI=F ISym2E= 0 IDoP0=3 IntGTp=3.
 FoFCou: FMM=F IPFlag=           0 FMFlag=      100000 FMFlg1=         800
         NFxFlg=           0 DoJE=F BraDBF=F KetDBF=F FulRan=T
         wScrn=  0.000000 ICntrl=      2127 IOpCl=  0 I1Cent=           0 NGrid=           0
         NMat0=    1 NMatS0=      1 NMatT0=    0 NMatD0=    1 NMtDS0=    0 NMtDT0=    0
 Symmetry not used in FoFCou.
 Leave Link  703 at Mon Nov  6 15:28:36 2017, MaxMem=   134217728 cpu:               0.1 elap:               0.1
 (Enter /n/sw/g16_nehalem/g16/l716.exe)
 Dipole        = 6.98755063D-04 2.13489031D-02-3.47402382D+00
 ***** Axes restored to original set *****
 -------------------------------------------------------------------
 Center     Atomic                   Forces (Hartrees/Bohr)
 Number     Number              X              Y              Z
 -------------------------------------------------------------------
      1        6          -0.016432948   -0.000011337    0.000007864
      2        1          -0.000001785    0.000004995    0.000001587
      3        1          -0.000004643    0.000002190    0.000000549
      4        1           0.000002702    0.000004018   -0.000002826
      5       17           0.016437978    0.000000479   -0.000008829
      6       17          -0.000001304   -0.000000345    0.000001656
 -------------------------------------------------------------------
 Cartesian Forces:  Max     0.016437978 RMS     0.005478490
 Leave Link  716 at Mon Nov  6 15:28:36 2017, MaxMem=   134217728 cpu:               0.1 elap:               0.1
 (Enter /n/sw/g16_nehalem/g16/l103.exe)

 GradGradGradGradGradGradGradGradGradGradGradGradGradGradGradGradGradGrad
 Berny optimization.
 FormGI is forming the generalized inverse of G from B-inverse, IUseBI=4.
 Internal  Forces:  Max     0.016437981 RMS     0.003223754
 Search for a local minimum.
 Step number   1 out of a maximum of   36 on scan point     1 out of    41
 All quantities printed in internal units (Hartrees-Bohrs-Radians)
 RMS Force = .32876D-02 SwitMx=.10000D-02 MixMth= 1
 Mixed Optimization -- RFO/linear search
 Second derivative matrix not updated -- first step.
 ITU=  0
     Eigenvalues ---    0.01599   0.01616   0.04361   0.05381   0.05517
     Eigenvalues ---    0.10294   0.10706   0.30052   0.30528   0.30873
     Eigenvalues ---    0.313261000.000001000.000001000.000001000.00000
     Eigenvalues --- 1000.000001000.000001000.000001000.000001000.00000
     Eigenvalues --- 1000.000001000.000001000.000001000.000001000.00000
     Eigenvalues --- 1000.00000
 RFO step:  Lambda=-8.60201591D-04 EMin= 1.59915930D-02
 Linear search not attempted -- first point.
 Iteration  1 RMS(Cart)=  0.00936996 RMS(Int)=  0.00000021
 Iteration  2 RMS(Cart)=  0.00000029 RMS(Int)=  0.00000000
 Iteration  1 RMS(Cart)=  0.00000000 RMS(Int)=  0.00000000
 ITry= 1 IFail=0 DXMaxC= 4.36D-02 DCOld= 1.00D+10 DXMaxT= 3.00D-01 DXLimC= 3.00D+00 Rises=F
 Variable       Old X    -DE/DX   Delta X   Delta X   Delta X     New X
                                 (Linear)    (Quad)   (Total)
    R1        2.10063   0.00000   0.00000  -0.00001  -0.00001   2.10062
    R2        2.10061   0.00000   0.00000   0.00001   0.00001   2.10062
    R3        2.10064   0.00000   0.00000   0.00000   0.00000   2.10064
    R4        3.29095   0.01644   0.00000   0.05233   0.05233   3.34328
    R5        5.51326   0.00000   0.00000   0.00000   0.00000   5.51326
    R6        5.23588   0.00000   0.00000  -0.00014  -0.00014   5.23574
    R7        5.23452   0.00000   0.00000  -0.00002  -0.00002   5.23450
    R8        5.23273   0.00000   0.00000   0.00012   0.00012   5.23285
    A1        1.92468   0.00000   0.00000  -0.00003  -0.00003   1.92465
    A2        1.92455   0.00000   0.00000   0.00004   0.00004   1.92458
    A3        1.89639   0.00000   0.00000   0.00000   0.00000   1.89639
    A4        1.92463   0.00000   0.00000  -0.00002  -0.00002   1.92460
    A5        1.89641   0.00000   0.00000   0.00002   0.00002   1.89643
    A6        1.89650   0.00000   0.00000   0.00000   0.00000   1.89649
    A7        0.67099   0.00000   0.00000   0.00000   0.00000   0.67100
    A8        0.67108   0.00000   0.00000   0.00001   0.00001   0.67109
    A9        0.67119   0.00000   0.00000  -0.00001  -0.00001   0.67118
   A10        3.14226   0.00000   0.00000  -0.00006  -0.00006   3.14220
   A11        3.14206   0.00000   0.00000  -0.00003  -0.00003   3.14203
    D1        2.12966   0.00000   0.00000  -0.00003  -0.00003   2.12963
    D2       -2.09443   0.00000   0.00000   0.00002   0.00002  -2.09441
    D3        2.09432   0.00000   0.00000   0.00004   0.00004   2.09437
    D4       -2.09443   0.00000   0.00000   0.00002   0.00002  -2.09441
    D5        0.55825   0.00000   0.00000   0.00000   0.00000   0.55825
    D6       -0.55810   0.00000   0.00000   0.00003   0.00003  -0.55808
    D7        0.55785   0.00000   0.00000   0.00003   0.00003   0.55788
         Item               Value     Threshold  Converged?
 Maximum Force            0.016438     0.000450     NO 
 RMS     Force            0.003288     0.000300     NO 
 Maximum Displacement     0.043614     0.001800     NO 
 RMS     Displacement     0.009370     0.001200     NO 
 Predicted change in Energy=-4.312819D-04
 Lowest energy point so far.  Saving SCF results.
 GradGradGradGradGradGradGradGradGradGradGradGradGradGradGradGradGradGrad

 Leave Link  103 at Mon Nov  6 15:28:36 2017, MaxMem=   134217728 cpu:               0.0 elap:               0.1
 (Enter /n/sw/g16_nehalem/g16/l202.exe)
                          Input orientation:                          
 ---------------------------------------------------------------------
 Center     Atomic      Atomic             Coordinates (Angstroms)
 Number     Number       Type             X           Y           Z
 ---------------------------------------------------------------------
      1          6           0        0.485127   -0.000101    0.000646
      2          1           0        0.129981   -0.704204    0.784078
      3          1           0        0.129556    1.030231    0.218919
      4          1           0        0.128982   -0.326430   -1.000529
      5         17           0        2.254314    0.000012   -0.000205
      6         17           0       -2.432365    0.000000   -0.000081
 ---------------------------------------------------------------------
                    Distance matrix (angstroms):
                    1          2          3          4          5
     1  C    0.000000
     2  H    1.111600   0.000000
     3  H    1.111602   1.824191   0.000000
     4  H    1.111612   1.824154   1.824166   0.000000
     5  Cl   1.769187   2.371457   2.371489   2.371549   0.000000
     6  Cl   2.917492   2.770637   2.769979   2.769107   4.686679
                    6
     6  Cl   0.000000
 Stoichiometry    CH3Cl2(1-)
 Framework group  C1[X(CH3Cl2)]
 Deg. of freedom    12
 Full point group                 C1      NOp   1
 RotChk:  IX=2 Diff= 2.01D+00
 Largest Abelian subgroup         C1      NOp   1
 Largest concise Abelian subgroup C1      NOp   1
                         Standard orientation:                         
 ---------------------------------------------------------------------
 Center     Atomic      Atomic             Coordinates (Angstroms)
 Number     Number       Type             X           Y           Z
 ---------------------------------------------------------------------
      1          6           0        0.478792   -0.000184    0.000593
      2          1           0        0.123640   -0.824793    0.655988
      3          1           0        0.123220    0.979488    0.387207
      4          1           0        0.122655   -0.155430   -1.040918
      5         17           0        2.247979    0.000067   -0.000214
      6         17           0       -2.438700    0.000041   -0.000129
 ---------------------------------------------------------------------
 Rotational constants (GHZ):         150.6954448           1.2986717           1.2986714
 Leave Link  202 at Mon Nov  6 15:28:36 2017, MaxMem=   134217728 cpu:               0.0 elap:               0.0
 (Enter /n/sw/g16_nehalem/g16/l301.exe)
 Standard basis: VSTO-6G (5D, 7F)
 Ernie: Thresh=  0.10000D-02 Tol=  0.10000D-05 Strict=F.
  NNHCO=     0 NNPyr=     0 NCTC=     0               EPep=         0.000000000
    EC=        30.121906603  ECS=         0.499658260   EG=         0.107457300
   EHC=         0.000000000  EAt=       -33.052413022  AtH=         0.613817027
 EPDDG=         0.000000000  ECC=        30.729022163 EAtT=        33.666230050
 There are    15 symmetry adapted cartesian basis functions of A   symmetry.
 There are    15 symmetry adapted basis functions of A   symmetry.
    15 basis functions,    90 primitive gaussians,    15 cartesian basis functions
    11 alpha electrons       11 beta electrons
       nuclear repulsion energy        64.3952522121 Hartrees.
 IExCor=    0 DFT=F Ex=HF Corr=None ExCW=0 ScaHFX=  1.000000
 ScaDFX=  1.000000  1.000000  1.000000  1.000000 ScalE2=  1.000000  1.000000
 IRadAn=      5 IRanWt=     -1 IRanGd=            0 ICorTp=0 IEmpDi=  4
 Integral buffers will be    131072 words long.
 Regular integral format.
 Two-electron integral symmetry is turned off.
 Leave Link  301 at Mon Nov  6 15:28:36 2017, MaxMem=   134217728 cpu:               0.1 elap:               0.1
 (Enter /n/sw/g16_nehalem/g16/l302.exe)
 Do NDO integrals.
 NPDir=0 NMtPBC=     1 NCelOv=     1 NCel=       1 NClECP=     1 NCelD=      1
         NCelK=      1 NCelE2=     1 NClLst=     1 CellRange=     0.0.
 One-electron integrals computed using PRISM.
 NBasis=    15 RedAO= F EigKep=  0.00D+00  NBF=    15
 NBsUse=    15 1.00D-04 EigRej=  0.00D+00 NBFU=    15
 Leave Link  302 at Mon Nov  6 15:28:36 2017, MaxMem=   134217728 cpu:               0.1 elap:               0.1
 (Enter /n/sw/g16_nehalem/g16/l303.exe)
 DipDrv:  MaxL=1.
 Leave Link  303 at Mon Nov  6 15:28:36 2017, MaxMem=   134217728 cpu:               0.0 elap:               0.1
 (Enter /n/sw/g16_nehalem/g16/l401.exe)
 Initial guess from the checkpoint file:  "/scratch/dhuang9_MeCl_scan/Gau-39239.chk"
 B after Tr=     0.000000    0.000000    0.000000
         Rot=    0.705004   -0.054663    0.704627    0.059015 Ang= -90.34 deg.
 Guess basis will be translated and rotated to current coordinates.
 JPrj=0 DoOrth=T DoCkMO=T.
 Leave Link  401 at Mon Nov  6 15:28:37 2017, MaxMem=   134217728 cpu:               0.1 elap:               0.1
 (Enter /n/sw/g16_nehalem/g16/l502.exe)
 Keep J ints in memory in canonical form, NReq=859737.
 FoFCou: FMM=F IPFlag=           0 FMFlag=           0 FMFlg1=           0
         NFxFlg=           0 DoJE=F BraDBF=F KetDBF=F FulRan=T
         wScrn=  0.000000 ICntrl=       600 IOpCl=  2 I1Cent=           0 NGrid=           0
         NMat0=    1 NMatS0=     33 NMatT0=    0 NMatD0=    1 NMtDS0=    0 NMtDT0=    0
 Symmetry not used in FoFCou.
 Two-electron integral symmetry not used.
 Closed shell SCF:
 Using DIIS extrapolation, IDIIS=  1040.
 Overlap will be assumed to be unity.
 NGot=   134217728 LenX=   134156814 LenY=   134155932
 Requested convergence on RMS density matrix=1.00D-08 within 128 cycles.
 Requested convergence on MAX density matrix=1.00D-06.
 Requested convergence on             energy=1.00D-06.
 No special actions if energy rises.

 Cycle   1  Pass 1  IDiag  1:
 E=-0.103629399302307    
 DIIS: error= 1.96D-03 at cycle   1 NSaved=   1.
 NSaved= 1 IEnMin= 1 EnMin=-0.103629399302307     IErMin= 1 ErrMin= 1.96D-03
 ErrMax= 1.96D-03  0.00D+00 EMaxC= 1.00D-01 BMatC= 4.39D-05 BMatP= 4.39D-05
 IDIUse=3 WtCom= 9.80D-01 WtEn= 1.96D-02
 Coeff-Com:  0.100D+01
 Coeff-En:   0.100D+01
 Coeff:      0.100D+01
 GapD=    2.000 DampG=2.000 DampE=1.000 DampFc=2.0000 IDamp=-1.
 RMSDP=7.02D-04 MaxDP=4.17D-03              OVMax= 0.00D+00

 Cycle   2  Pass 1  IDiag  3:
 E=-0.103744196838889     Delta-E=       -0.000114797537 Rises=F Damp=F
 DIIS: error= 3.95D-04 at cycle   2 NSaved=   2.
 NSaved= 2 IEnMin= 2 EnMin=-0.103744196838889     IErMin= 2 ErrMin= 3.95D-04
 ErrMax= 3.95D-04  0.00D+00 EMaxC= 1.00D-01 BMatC= 2.95D-06 BMatP= 4.39D-05
 IDIUse=3 WtCom= 9.96D-01 WtEn= 3.95D-03
 Coeff-Com: -0.313D+00 0.131D+01
 Coeff-En:   0.000D+00 0.100D+01
 Coeff:     -0.311D+00 0.131D+01
 Gap=     0.325 Goal=   None    Shift=    0.000
 RMSDP=2.90D-04 MaxDP=1.81D-03 DE=-1.15D-04 OVMax= 2.17D-03

 Cycle   3  Pass 1  IDiag  3:
 E=-0.103755069847566     Delta-E=       -0.000010873009 Rises=F Damp=F
 DIIS: error= 6.84D-05 at cycle   3 NSaved=   3.
 NSaved= 3 IEnMin= 3 EnMin=-0.103755069847566     IErMin= 3 ErrMin= 6.84D-05
 ErrMax= 6.84D-05  0.00D+00 EMaxC= 1.00D-01 BMatC= 6.22D-08 BMatP= 2.95D-06
 IDIUse=1 WtCom= 1.00D+00 WtEn= 0.00D+00
 Coeff-Com:  0.139D+00-0.635D+00 0.150D+01
 Coeff:      0.139D+00-0.635D+00 0.150D+01
 Gap=     0.325 Goal=   None    Shift=    0.000
 RMSDP=6.40D-05 MaxDP=4.53D-04 DE=-1.09D-05 OVMax= 4.68D-04

 Cycle   4  Pass 1  IDiag  3:
 E=-0.103755411258504     Delta-E=       -0.000000341411 Rises=F Damp=F
 DIIS: error= 3.98D-06 at cycle   4 NSaved=   4.
 NSaved= 4 IEnMin= 4 EnMin=-0.103755411258504     IErMin= 4 ErrMin= 3.98D-06
 ErrMax= 3.98D-06  0.00D+00 EMaxC= 1.00D-01 BMatC= 7.89D-10 BMatP= 6.22D-08
 IDIUse=1 WtCom= 1.00D+00 WtEn= 0.00D+00
 Coeff-Com: -0.564D-01 0.261D+00-0.655D+00 0.145D+01
 Coeff:     -0.564D-01 0.261D+00-0.655D+00 0.145D+01
 Gap=     0.325 Goal=   None    Shift=    0.000
 RMSDP=8.30D-06 MaxDP=4.03D-05 DE=-3.41D-07 OVMax= 6.23D-05

 Cycle   5  Pass 1  IDiag  3:
 E=-0.103755416562805     Delta-E=       -0.000000005304 Rises=F Damp=F
 DIIS: error= 1.05D-06 at cycle   5 NSaved=   5.
 NSaved= 5 IEnMin= 5 EnMin=-0.103755416562805     IErMin= 5 ErrMin= 1.05D-06
 ErrMax= 1.05D-06  0.00D+00 EMaxC= 1.00D-01 BMatC= 3.07D-11 BMatP= 7.89D-10
 IDIUse=1 WtCom= 1.00D+00 WtEn= 0.00D+00
 Coeff-Com:  0.235D-01-0.109D+00 0.276D+00-0.699D+00 0.151D+01
 Coeff:      0.235D-01-0.109D+00 0.276D+00-0.699D+00 0.151D+01
 Gap=     0.325 Goal=   None    Shift=    0.000
 RMSDP=1.66D-06 MaxDP=7.52D-06 DE=-5.30D-09 OVMax= 0.00D+00

 Cycle   6  Pass 1  IDiag  3:
 E=-0.103755416765267     Delta-E=       -0.000000000202 Rises=F Damp=F
 DIIS: error= 2.48D-07 at cycle   6 NSaved=   6.
 NSaved= 6 IEnMin= 6 EnMin=-0.103755416765267     IErMin= 6 ErrMin= 2.48D-07
 ErrMax= 2.48D-07  0.00D+00 EMaxC= 1.00D-01 BMatC= 1.15D-12 BMatP= 3.07D-11
 IDIUse=1 WtCom= 1.00D+00 WtEn= 0.00D+00
 Coeff-Com: -0.979D-02 0.455D-01-0.115D+00 0.301D+00-0.760D+00 0.154D+01
 Coeff:     -0.979D-02 0.455D-01-0.115D+00 0.301D+00-0.760D+00 0.154D+01
 Gap=     0.325 Goal=   None    Shift=    0.000
 RMSDP=2.80D-07 MaxDP=1.48D-06 DE=-2.02D-10 OVMax= 0.00D+00

 Cycle   7  Pass 1  IDiag  3:
 E=-0.103755416771762     Delta-E=       -0.000000000006 Rises=F Damp=F
 DIIS: error= 2.62D-08 at cycle   7 NSaved=   7.
 NSaved= 7 IEnMin= 7 EnMin=-0.103755416771762     IErMin= 7 ErrMin= 2.62D-08
 ErrMax= 2.62D-08  0.00D+00 EMaxC= 1.00D-01 BMatC= 2.04D-14 BMatP= 1.15D-12
 IDIUse=1 WtCom= 1.00D+00 WtEn= 0.00D+00
 Coeff-Com:  0.199D-02-0.926D-02 0.235D-01-0.611D-01 0.163D+00-0.413D+00
 Coeff-Com:  0.129D+01
 Coeff:      0.199D-02-0.926D-02 0.235D-01-0.611D-01 0.163D+00-0.413D+00
 Coeff:      0.129D+01
 Gap=     0.325 Goal=   None    Shift=    0.000
 RMSDP=3.55D-08 MaxDP=1.37D-07 DE=-6.49D-12 OVMax= 2.29D-07

 Cycle   8  Pass 1  IDiag  3:
 E=-0.103755416771861     Delta-E=        0.000000000000 Rises=F Damp=F
 DIIS: error= 8.95D-09 at cycle   8 NSaved=   8.
 NSaved= 8 IEnMin= 8 EnMin=-0.103755416771861     IErMin= 8 ErrMin= 8.95D-09
 ErrMax= 8.95D-09  0.00D+00 EMaxC= 1.00D-01 BMatC= 1.65D-15 BMatP= 2.04D-14
 IDIUse=1 WtCom= 1.00D+00 WtEn= 0.00D+00
 Coeff-Com: -0.272D-03 0.126D-02-0.317D-02 0.813D-02-0.249D-01 0.856D-01
 Coeff-Com: -0.515D+00 0.145D+01
 Coeff:     -0.272D-03 0.126D-02-0.317D-02 0.813D-02-0.249D-01 0.856D-01
 Coeff:     -0.515D+00 0.145D+01
 Gap=     0.325 Goal=   None    Shift=    0.000
 RMSDP=1.24D-08 MaxDP=5.83D-08 DE=-9.95D-14 OVMax= 1.09D-07

 Cycle   9  Pass 1  IDiag  3:
 E=-0.103755416771989     Delta-E=        0.000000000000 Rises=F Damp=F
 DIIS: error= 2.85D-09 at cycle   9 NSaved=   9.
 NSaved= 9 IEnMin= 9 EnMin=-0.103755416771989     IErMin= 9 ErrMin= 2.85D-09
 ErrMax= 2.85D-09  0.00D+00 EMaxC= 1.00D-01 BMatC= 1.66D-16 BMatP= 1.65D-15
 IDIUse=1 WtCom= 1.00D+00 WtEn= 0.00D+00
 Coeff-Com:  0.397D-04-0.186D-03 0.443D-03-0.105D-02 0.528D-02-0.298D-01
 Coeff-Com:  0.273D+00-0.105D+01 0.181D+01
 Coeff:      0.397D-04-0.186D-03 0.443D-03-0.105D-02 0.528D-02-0.298D-01
 Coeff:      0.273D+00-0.105D+01 0.181D+01
 Gap=     0.325 Goal=   None    Shift=    0.000
 RMSDP=5.19D-09 MaxDP=2.50D-08 DE=-1.28D-13 OVMax= 4.89D-08

 Cycle  10  Pass 2  IDiag  1:
 SCF Done:  E(RAM1) = -0.103755416772     A.U. after   10 cycles
            NFock=  9  Conv=0.52D-08     -V/T= 0.9982
 KE=-5.724302472238D+01 PE=-6.134774240876D+01 EE= 5.409175950223D+01
 Leave Link  502 at Mon Nov  6 15:28:37 2017, MaxMem=   134217728 cpu:               0.1 elap:               0.1
 (Enter /n/sw/g16_nehalem/g16/l701.exe)
 ... and contract with generalized density number  0.
 Compute integral first derivatives.
 Leave Link  701 at Mon Nov  6 15:28:37 2017, MaxMem=   134217728 cpu:               0.1 elap:               0.1
 (Enter /n/sw/g16_nehalem/g16/l702.exe)
 L702 exits ... SP integral derivatives will be done elsewhere.
 Leave Link  702 at Mon Nov  6 15:28:37 2017, MaxMem=   134217728 cpu:               0.0 elap:               0.1
 (Enter /n/sw/g16_nehalem/g16/l703.exe)
 Integral derivatives from FoFJK, PRISM(SPDF).
 Compute integral first derivatives, UseDBF=F ICtDFT=           0.
 Calling FoFJK, ICntrl=      2127 FMM=F ISym2X=0 I1Cent= 0 IOpClX= 0 NMat=1 NMatS=1 NMatT=0.
 FoFJK:  IHMeth= 8 ICntrl=    2127 DoSepK=F KAlg= 0 I1Cent=           0 FoldK=F
 IRaf=         0 NMat=       1 IRICut=       1 DoRegI=T DoRafI=F ISym2E= 0 IDoP0=3 IntGTp=3.
 FoFCou: FMM=F IPFlag=           0 FMFlag=      100000 FMFlg1=         800
         NFxFlg=           0 DoJE=F BraDBF=F KetDBF=F FulRan=T
         wScrn=  0.000000 ICntrl=      2127 IOpCl=  0 I1Cent=           0 NGrid=           0
         NMat0=    1 NMatS0=      1 NMatT0=    0 NMatD0=    1 NMtDS0=    0 NMtDT0=    0
 Symmetry not used in FoFCou.
 Leave Link  703 at Mon Nov  6 15:28:37 2017, MaxMem=   134217728 cpu:               0.0 elap:               0.1
 (Enter /n/sw/g16_nehalem/g16/l716.exe)
 Dipole        = 3.43297471D+00-1.72342891D-04 5.29237881D-04
 ***** Axes restored to original set *****
 -------------------------------------------------------------------
 Center     Atomic                   Forces (Hartrees/Bohr)
 Number     Number              X              Y              Z
 -------------------------------------------------------------------
      1        6          -0.007784868   -0.000003966    0.000002341
      2        1           0.001465254    0.000130207   -0.000142697
      3        1           0.001466044   -0.000187172   -0.000040395
      4        1           0.001470415    0.000061160    0.000180589
      5       17           0.002892972    0.000000035   -0.000001556
      6       17           0.000490184   -0.000000264    0.000001718
 -------------------------------------------------------------------
 Cartesian Forces:  Max     0.007784868 RMS     0.002051862
 Leave Link  716 at Mon Nov  6 15:28:37 2017, MaxMem=   134217728 cpu:               0.1 elap:               0.1
 (Enter /n/sw/g16_nehalem/g16/l103.exe)

 GradGradGradGradGradGradGradGradGradGradGradGradGradGradGradGradGradGrad
 Berny optimization.
 Using GEDIIS/GDIIS optimizer.
 FormGI is forming the generalized inverse of G from B-inverse, IUseBI=4.
 Internal  Forces:  Max     0.002892973 RMS     0.000765429
 Search for a local minimum.
 Step number   2 out of a maximum of   36 on scan point     1 out of    41
 All quantities printed in internal units (Hartrees-Bohrs-Radians)
 RMS Force = .70691D-03 SwitMx=.10000D-02 MixMth= 2
 Mixed Optimization -- En-DIIS/RFO-DIIS
 Update second derivatives using D2CorX and points    1    2
 DE= -4.98D-04 DEPred=-4.31D-04 R= 1.16D+00
 TightC=F SS=  1.41D+00  RLast= 5.23D-02 DXNew= 5.0454D-01 1.5699D-01
 Trust test= 1.16D+00 RLast= 5.23D-02 DXMaxT set to 3.00D-01
 ITU=  1  0
 Use linear search instead of GDIIS.
     Eigenvalues ---    0.01599   0.01616   0.04311   0.05380   0.05482
     Eigenvalues ---    0.10288   0.10706   0.25476   0.30092   0.30542
     Eigenvalues ---    0.318991000.000001000.000001000.000001000.00000
     Eigenvalues --- 1000.000001000.000001000.000001000.000001000.00000
     Eigenvalues --- 1000.000001000.000001000.000001000.000001000.00000
     Eigenvalues --- 1000.00000
 RFO step:  Lambda=-9.52506090D-05 EMin= 1.59915371D-02
 Quartic linear search produced a step of  0.23163.
 Iteration  1 RMS(Cart)=  0.00424963 RMS(Int)=  0.00005178
 Iteration  2 RMS(Cart)=  0.00002718 RMS(Int)=  0.00004268
 Iteration  3 RMS(Cart)=  0.00000000 RMS(Int)=  0.00004268
 Iteration  1 RMS(Cart)=  0.00000205 RMS(Int)=  0.00000389
 Iteration  2 RMS(Cart)=  0.00000114 RMS(Int)=  0.00000434
 Iteration  3 RMS(Cart)=  0.00000063 RMS(Int)=  0.00000491
 ITry= 1 IFail=0 DXMaxC= 1.20D-02 DCOld= 1.00D+10 DXMaxT= 3.00D-01 DXLimC= 3.00D+00 Rises=F
 Variable       Old X    -DE/DX   Delta X   Delta X   Delta X     New X
                                 (Linear)    (Quad)   (Total)
    R1        2.10062  -0.00062   0.00000  -0.00235  -0.00235   2.09827
    R2        2.10062  -0.00065   0.00000  -0.00235  -0.00234   2.09828
    R3        2.10064  -0.00062   0.00000  -0.00236  -0.00235   2.09829
    R4        3.34328   0.00289   0.01212   0.00571   0.01783   3.36111
    R5        5.51326  -0.00111   0.00000   0.00000   0.00000   5.51327
    R6        5.23574   0.00019  -0.00003   0.01789   0.01783   5.25358
    R7        5.23450   0.00019   0.00000   0.01804   0.01801   5.25251
    R8        5.23285   0.00025   0.00003   0.01824   0.01825   5.25110
    A1        1.92465   0.00038  -0.00001   0.00829   0.00818   1.93283
    A2        1.92458   0.00069   0.00001   0.00850   0.00843   1.93301
    A3        1.89639  -0.00057   0.00000  -0.00868  -0.00868   1.88771
    A4        1.92460   0.00069  -0.00001   0.00847   0.00839   1.93299
    A5        1.89643  -0.00057   0.00000  -0.00868  -0.00867   1.88775
    A6        1.89649  -0.00069   0.00000  -0.00869  -0.00870   1.88780
    A7        0.67100  -0.00015   0.00000  -0.00116  -0.00118   0.66981
    A8        0.67109  -0.00007   0.00000  -0.00113  -0.00114   0.66995
    A9        0.67118  -0.00007   0.00000  -0.00114  -0.00116   0.67002
   A10        3.14220   0.00003  -0.00001  -0.00008  -0.00009   3.14211
   A11        3.14203   0.00005  -0.00001  -0.00005  -0.00006   3.14197
    D1        2.12963   0.00140  -0.00001   0.02173   0.02188   2.15151
    D2       -2.09441   0.00021   0.00001   0.00015   0.00018  -2.09424
    D3        2.09437   0.00010   0.00001   0.00009   0.00011   2.09448
    D4       -2.09441  -0.00010   0.00000  -0.00006  -0.00006  -2.09447
    D5        0.55825   0.00011   0.00000  -0.00008  -0.00007   0.55818
    D6       -0.55808   0.00007   0.00001   0.00017   0.00018  -0.55789
    D7        0.55788  -0.00007   0.00001  -0.00013  -0.00013   0.55775
         Item               Value     Threshold  Converged?
 Maximum Force            0.002893     0.000450     NO 
 RMS     Force            0.000707     0.000300     NO 
 Maximum Displacement     0.011994     0.001800     NO 
 RMS     Displacement     0.004247     0.001200     NO 
 Predicted change in Energy=-6.278587D-05
 Lowest energy point so far.  Saving SCF results.
 GradGradGradGradGradGradGradGradGradGradGradGradGradGradGradGradGradGrad

 Leave Link  103 at Mon Nov  6 15:28:37 2017, MaxMem=   134217728 cpu:               0.0 elap:               0.0
 (Enter /n/sw/g16_nehalem/g16/l202.exe)
                          Input orientation:                          
 ---------------------------------------------------------------------
 Center     Atomic      Atomic             Coordinates (Angstroms)
 Number     Number       Type             X           Y           Z
 ---------------------------------------------------------------------
      1          6           0        0.478782   -0.000109    0.000598
      2          1           0        0.133123   -0.705378    0.785461
      3          1           0        0.132747    1.032037    0.219315
      4          1           0        0.132250   -0.326996   -1.002387
      5         17           0        2.257406   -0.000018   -0.000157
      6         17           0       -2.438712   -0.000029   -0.000003
 ---------------------------------------------------------------------
                    Distance matrix (angstroms):
                    1          2          3          4          5
     1  C    0.000000
     2  H    1.110358   0.000000
     3  H    1.110362   1.827330   0.000000
     4  H    1.110369   1.827450   1.827438   0.000000
     5  Cl   1.778624   2.372194   2.372231   2.372270   0.000000
     6  Cl   2.917495   2.780074   2.779508   2.778764   4.696118
                    6
     6  Cl   0.000000
 Stoichiometry    CH3Cl2(1-)
 Framework group  C1[X(CH3Cl2)]
 Deg. of freedom    12
 Full point group                 C1      NOp   1
 RotChk:  IX=1 Diff= 1.90D+00
 Largest Abelian subgroup         C1      NOp   1
 Largest concise Abelian subgroup C1      NOp   1
                         Standard orientation:                         
 ---------------------------------------------------------------------
 Center     Atomic      Atomic             Coordinates (Angstroms)
 Number     Number       Type             X           Y           Z
 ---------------------------------------------------------------------
      1          6           0        0.474396    0.000495    0.000203
      2          1           0        0.128724    0.575199    0.885144
      3          1           0        0.128358    0.479819   -0.939695
      4          1           0        0.127880   -1.052980    0.055320
      5         17           0        2.253020   -0.000183   -0.000073
      6         17           0       -2.443098   -0.000111   -0.000044
 ---------------------------------------------------------------------
 Rotational constants (GHZ):         150.1623696           1.2936735           1.2936726
 Leave Link  202 at Mon Nov  6 15:28:37 2017, MaxMem=   134217728 cpu:               0.0 elap:               0.0
 (Enter /n/sw/g16_nehalem/g16/l301.exe)
 Standard basis: VSTO-6G (5D, 7F)
 Ernie: Thresh=  0.10000D-02 Tol=  0.10000D-05 Strict=F.
  NNHCO=     0 NNPyr=     0 NCTC=     0               EPep=         0.000000000
    EC=        30.072267019  ECS=         0.497796056   EG=         0.106417240
   EHC=         0.000000000  EAt=       -33.052413022  AtH=         0.613817027
 EPDDG=         0.000000000  ECC=        30.676480315 EAtT=        33.666230050
 There are    15 symmetry adapted cartesian basis functions of A   symmetry.
 There are    15 symmetry adapted basis functions of A   symmetry.
    15 basis functions,    90 primitive gaussians,    15 cartesian basis functions
    11 alpha electrons       11 beta electrons
       nuclear repulsion energy        64.3427103643 Hartrees.
 IExCor=    0 DFT=F Ex=HF Corr=None ExCW=0 ScaHFX=  1.000000
 ScaDFX=  1.000000  1.000000  1.000000  1.000000 ScalE2=  1.000000  1.000000
 IRadAn=      5 IRanWt=     -1 IRanGd=            0 ICorTp=0 IEmpDi=  4
 Integral buffers will be    131072 words long.
 Regular integral format.
 Two-electron integral symmetry is turned off.
 Leave Link  301 at Mon Nov  6 15:28:37 2017, MaxMem=   134217728 cpu:               0.1 elap:               0.1
 (Enter /n/sw/g16_nehalem/g16/l302.exe)
 Do NDO integrals.
 NPDir=0 NMtPBC=     1 NCelOv=     1 NCel=       1 NClECP=     1 NCelD=      1
         NCelK=      1 NCelE2=     1 NClLst=     1 CellRange=     0.0.
 One-electron integrals computed using PRISM.
 NBasis=    15 RedAO= F EigKep=  0.00D+00  NBF=    15
 NBsUse=    15 1.00D-04 EigRej=  0.00D+00 NBFU=    15
 Leave Link  302 at Mon Nov  6 15:28:37 2017, MaxMem=   134217728 cpu:               0.1 elap:               0.1
 (Enter /n/sw/g16_nehalem/g16/l303.exe)
 DipDrv:  MaxL=1.
 Leave Link  303 at Mon Nov  6 15:28:37 2017, MaxMem=   134217728 cpu:               0.1 elap:               0.1
 (Enter /n/sw/g16_nehalem/g16/l401.exe)
 Initial guess from the checkpoint file:  "/scratch/dhuang9_MeCl_scan/Gau-39239.chk"
 B after Tr=     0.000000    0.000000    0.000000
         Rot=    0.740109    0.672487    0.000001    0.000000 Ang=  84.52 deg.
 Guess basis will be translated and rotated to current coordinates.
 JPrj=0 DoOrth=T DoCkMO=T.
 Leave Link  401 at Mon Nov  6 15:28:37 2017, MaxMem=   134217728 cpu:               0.1 elap:               0.2
 (Enter /n/sw/g16_nehalem/g16/l502.exe)
 Keep J ints in memory in canonical form, NReq=859737.
 FoFCou: FMM=F IPFlag=           0 FMFlag=           0 FMFlg1=           0
         NFxFlg=           0 DoJE=F BraDBF=F KetDBF=F FulRan=T
         wScrn=  0.000000 ICntrl=       600 IOpCl=  2 I1Cent=           0 NGrid=           0
         NMat0=    1 NMatS0=     33 NMatT0=    0 NMatD0=    1 NMtDS0=    0 NMtDT0=    0
 Symmetry not used in FoFCou.
 Two-electron integral symmetry not used.
 Closed shell SCF:
 Using DIIS extrapolation, IDIIS=  1040.
 Overlap will be assumed to be unity.
 NGot=   134217728 LenX=   134156814 LenY=   134155932
 Requested convergence on RMS density matrix=1.00D-08 within 128 cycles.
 Requested convergence on MAX density matrix=1.00D-06.
 Requested convergence on             energy=1.00D-06.
 No special actions if energy rises.

 Cycle   1  Pass 1  IDiag  1:
 E=-0.103798930145587    
 DIIS: error= 9.29D-04 at cycle   1 NSaved=   1.
 NSaved= 1 IEnMin= 1 EnMin=-0.103798930145587     IErMin= 1 ErrMin= 9.29D-04
 ErrMax= 9.29D-04  0.00D+00 EMaxC= 1.00D-01 BMatC= 1.18D-05 BMatP= 1.18D-05
 IDIUse=3 WtCom= 9.91D-01 WtEn= 9.29D-03
 Coeff-Com:  0.100D+01
 Coeff-En:   0.100D+01
 Coeff:      0.100D+01
 RMSDP=4.10D-04 MaxDP=2.01D-03              OVMax= 0.00D+00

 Cycle   2  Pass 1  IDiag  3:
 E=-0.103835975083513     Delta-E=       -0.000037044938 Rises=F Damp=F
 DIIS: error= 2.65D-04 at cycle   2 NSaved=   2.
 NSaved= 2 IEnMin= 2 EnMin=-0.103835975083513     IErMin= 2 ErrMin= 2.65D-04
 ErrMax= 2.65D-04  0.00D+00 EMaxC= 1.00D-01 BMatC= 1.10D-06 BMatP= 1.18D-05
 IDIUse=3 WtCom= 9.97D-01 WtEn= 2.65D-03
 Coeff-Com: -0.397D+00 0.140D+01
 Coeff-En:   0.000D+00 0.100D+01
 Coeff:     -0.396D+00 0.140D+01
 Gap=     0.324 Goal=   None    Shift=    0.000
 RMSDP=1.99D-04 MaxDP=1.07D-03 DE=-3.70D-05 OVMax= 1.37D-03

 Cycle   3  Pass 1  IDiag  3:
 E=-0.103840630585836     Delta-E=       -0.000004655502 Rises=F Damp=F
 DIIS: error= 2.84D-05 at cycle   3 NSaved=   3.
 NSaved= 3 IEnMin= 3 EnMin=-0.103840630585836     IErMin= 3 ErrMin= 2.84D-05
 ErrMax= 2.84D-05  0.00D+00 EMaxC= 1.00D-01 BMatC= 1.94D-08 BMatP= 1.10D-06
 IDIUse=1 WtCom= 1.00D+00 WtEn= 0.00D+00
 Coeff-Com:  0.165D+00-0.635D+00 0.147D+01
 Coeff:      0.165D+00-0.635D+00 0.147D+01
 Gap=     0.324 Goal=   None    Shift=    0.000
 RMSDP=3.57D-05 MaxDP=2.04D-04 DE=-4.66D-06 OVMax= 2.05D-04

 Cycle   4  Pass 1  IDiag  3:
 E=-0.103840737234663     Delta-E=       -0.000000106649 Rises=F Damp=F
 DIIS: error= 3.59D-06 at cycle   4 NSaved=   4.
 NSaved= 4 IEnMin= 4 EnMin=-0.103840737234663     IErMin= 4 ErrMin= 3.59D-06
 ErrMax= 3.59D-06  0.00D+00 EMaxC= 1.00D-01 BMatC= 3.14D-10 BMatP= 1.94D-08
 IDIUse=1 WtCom= 1.00D+00 WtEn= 0.00D+00
 Coeff-Com: -0.960D-01 0.371D+00-0.890D+00 0.162D+01
 Coeff:     -0.960D-01 0.371D+00-0.890D+00 0.162D+01
 Gap=     0.324 Goal=   None    Shift=    0.000
 RMSDP=6.14D-06 MaxDP=3.79D-05 DE=-1.07D-07 OVMax= 5.04D-05

 Cycle   5  Pass 1  IDiag  3:
 E=-0.103840739629433     Delta-E=       -0.000000002395 Rises=F Damp=F
 DIIS: error= 6.85D-07 at cycle   5 NSaved=   5.
 NSaved= 5 IEnMin= 5 EnMin=-0.103840739629433     IErMin= 5 ErrMin= 6.85D-07
 ErrMax= 6.85D-07  0.00D+00 EMaxC= 1.00D-01 BMatC= 8.52D-12 BMatP= 3.14D-10
 IDIUse=1 WtCom= 1.00D+00 WtEn= 0.00D+00
 Coeff-Com:  0.400D-01-0.155D+00 0.373D+00-0.746D+00 0.149D+01
 Coeff:      0.400D-01-0.155D+00 0.373D+00-0.746D+00 0.149D+01
 Gap=     0.324 Goal=   None    Shift=    0.000
 RMSDP=8.13D-07 MaxDP=4.07D-06 DE=-2.39D-09 OVMax= 0.00D+00

 Cycle   6  Pass 1  IDiag  3:
 E=-0.103840739679214     Delta-E=       -0.000000000050 Rises=F Damp=F
 DIIS: error= 1.21D-07 at cycle   6 NSaved=   6.
 NSaved= 6 IEnMin= 6 EnMin=-0.103840739679214     IErMin= 6 ErrMin= 1.21D-07
 ErrMax= 1.21D-07  0.00D+00 EMaxC= 1.00D-01 BMatC= 2.47D-13 BMatP= 8.52D-12
 IDIUse=1 WtCom= 1.00D+00 WtEn= 0.00D+00
 Coeff-Com: -0.151D-01 0.586D-01-0.141D+00 0.286D+00-0.671D+00 0.148D+01
 Coeff:     -0.151D-01 0.586D-01-0.141D+00 0.286D+00-0.671D+00 0.148D+01
 Gap=     0.324 Goal=   None    Shift=    0.000
 RMSDP=1.20D-07 MaxDP=7.24D-07 DE=-4.98D-11 OVMax= 5.13D-07

 Cycle   7  Pass 1  IDiag  3:
 E=-0.103840739680493     Delta-E=       -0.000000000001 Rises=F Damp=F
 DIIS: error= 8.81D-09 at cycle   7 NSaved=   7.
 NSaved= 7 IEnMin= 7 EnMin=-0.103840739680493     IErMin= 7 ErrMin= 8.81D-09
 ErrMax= 8.81D-09  0.00D+00 EMaxC= 1.00D-01 BMatC= 2.64D-15 BMatP= 2.47D-13
 IDIUse=1 WtCom= 1.00D+00 WtEn= 0.00D+00
 Coeff-Com:  0.287D-02-0.111D-01 0.267D-01-0.538D-01 0.130D+00-0.343D+00
 Coeff-Com:  0.125D+01
 Coeff:      0.287D-02-0.111D-01 0.267D-01-0.538D-01 0.130D+00-0.343D+00
 Coeff:      0.125D+01
 Gap=     0.324 Goal=   None    Shift=    0.000
 RMSDP=1.31D-08 MaxDP=5.83D-08 DE=-1.28D-12 OVMax= 8.44D-08

 Cycle   8  Pass 1  IDiag  3:
 E=-0.103840739680521     Delta-E=        0.000000000000 Rises=F Damp=F
 DIIS: error= 3.61D-09 at cycle   8 NSaved=   8.
 NSaved= 8 IEnMin= 8 EnMin=-0.103840739680521     IErMin= 8 ErrMin= 3.61D-09
 ErrMax= 3.61D-09  0.00D+00 EMaxC= 1.00D-01 BMatC= 2.26D-16 BMatP= 2.64D-15
 IDIUse=1 WtCom= 1.00D+00 WtEn= 0.00D+00
 Coeff-Com: -0.954D-03 0.370D-02-0.887D-02 0.175D-01-0.429D-01 0.126D+00
 Coeff-Com: -0.659D+00 0.156D+01
 Coeff:     -0.954D-03 0.370D-02-0.887D-02 0.175D-01-0.429D-01 0.126D+00
 Coeff:     -0.659D+00 0.156D+01
 Gap=     0.324 Goal=   None    Shift=    0.000
 RMSDP=4.91D-09 MaxDP=2.39D-08 DE=-2.84D-14 OVMax= 4.10D-08

 Cycle   9  Pass 2  IDiag  1:
 SCF Done:  E(RAM1) = -0.103840739681     A.U. after    9 cycles
            NFock=  8  Conv=0.49D-08     -V/T= 0.9982
 KE=-5.724933762419D+01 PE=-6.123804425114D+01 EE= 5.404083077134D+01
 Leave Link  502 at Mon Nov  6 15:28:38 2017, MaxMem=   134217728 cpu:               0.1 elap:               0.1
 (Enter /n/sw/g16_nehalem/g16/l701.exe)
 ... and contract with generalized density number  0.
 Compute integral first derivatives.
 Leave Link  701 at Mon Nov  6 15:28:38 2017, MaxMem=   134217728 cpu:               0.1 elap:               0.1
 (Enter /n/sw/g16_nehalem/g16/l702.exe)
 L702 exits ... SP integral derivatives will be done elsewhere.
 Leave Link  702 at Mon Nov  6 15:28:38 2017, MaxMem=   134217728 cpu:               0.1 elap:               0.1
 (Enter /n/sw/g16_nehalem/g16/l703.exe)
 Integral derivatives from FoFJK, PRISM(SPDF).
 Compute integral first derivatives, UseDBF=F ICtDFT=           0.
 Calling FoFJK, ICntrl=      2127 FMM=F ISym2X=0 I1Cent= 0 IOpClX= 0 NMat=1 NMatS=1 NMatT=0.
 FoFJK:  IHMeth= 8 ICntrl=    2127 DoSepK=F KAlg= 0 I1Cent=           0 FoldK=F
 IRaf=         0 NMat=       1 IRICut=       1 DoRegI=T DoRafI=F ISym2E= 0 IDoP0=3 IntGTp=3.
 FoFCou: FMM=F IPFlag=           0 FMFlag=      100000 FMFlg1=         800
         NFxFlg=           0 DoJE=F BraDBF=F KetDBF=F FulRan=T
         wScrn=  0.000000 ICntrl=      2127 IOpCl=  0 I1Cent=           0 NGrid=           0
         NMat0=    1 NMatS0=      1 NMatT0=    0 NMatD0=    1 NMtDS0=    0 NMtDT0=    0
 Symmetry not used in FoFCou.
 Leave Link  703 at Mon Nov  6 15:28:38 2017, MaxMem=   134217728 cpu:               0.1 elap:               0.1
 (Enter /n/sw/g16_nehalem/g16/l716.exe)
 Dipole        = 3.42040895D+00 4.83883088D-04 1.81999499D-04
 ***** Axes restored to original set *****
 -------------------------------------------------------------------
 Center     Atomic                   Forces (Hartrees/Bohr)
 Number     Number              X              Y              Z
 -------------------------------------------------------------------
      1        6          -0.003178870    0.000002774    0.000010005
      2        1           0.000757162    0.000030145   -0.000048969
      3        1           0.000759320   -0.000052052   -0.000021475
      4        1           0.000759865    0.000019275    0.000059435
      5       17           0.000104185    0.000000017   -0.000000678
      6       17           0.000798339   -0.000000160    0.000001681
 -------------------------------------------------------------------
 Cartesian Forces:  Max     0.003178870 RMS     0.000833039
 Leave Link  716 at Mon Nov  6 15:28:38 2017, MaxMem=   134217728 cpu:               0.0 elap:               0.1
 (Enter /n/sw/g16_nehalem/g16/l103.exe)

 GradGradGradGradGradGradGradGradGradGradGradGradGradGradGradGradGradGrad
 Berny optimization.
 Using GEDIIS/GDIIS optimizer.
 FormGI is forming the generalized inverse of G from B-inverse, IUseBI=4.
 Internal  Forces:  Max     0.000882380 RMS     0.000314456
 Search for a local minimum.
 Step number   3 out of a maximum of   36 on scan point     1 out of    41
 All quantities printed in internal units (Hartrees-Bohrs-Radians)
 RMS Force = .20652D-03 SwitMx=.10000D-02 MixMth= 2
 Mixed Optimization -- En-DIIS/RFO-DIIS
 Swapping is turned off.
 Update second derivatives using D2CorX and points    1    2    3
 DE= -8.53D-05 DEPred=-6.28D-05 R= 1.36D+00
 TightC=F SS=  1.41D+00  RLast= 4.72D-02 DXNew= 5.0454D-01 1.4157D-01
 Trust test= 1.36D+00 RLast= 4.72D-02 DXMaxT set to 3.00D-01
 ITU=  1  1  0
     Eigenvalues ---    0.01601   0.01615   0.02849   0.05323   0.05459
     Eigenvalues ---    0.10283   0.10703   0.27224   0.30123   0.30542
     Eigenvalues ---    0.335931000.000001000.000001000.000001000.00000
     Eigenvalues --- 1000.000001000.000001000.000001000.000001000.00000
     Eigenvalues --- 1000.000001000.000001000.000001000.000001000.00000
     Eigenvalues --- 1000.00000
 En-DIIS/RFO-DIIS/Sim-DIIS IScMMF=       -3 using points:     3    2
 RFO step:  Lambda=-2.85842603D-05.
 NNeg= 0 NGDIIS= 2 SimSw=  2.50D-03 Rises=F DC= -8.53D-05 SmlDif=  1.00D-05
 NRisDI= 0 DoIntr=F SqrtH=F CThrHd= 10.0 CDAdj=  3.0
 RMS Error=  0.6082604927D-02 NUsed= 2 OKEnD=T EnDIS=F
 InvSVX:  RCond= 5.56D-04 Info=           0 Equed=N FErr=  3.04D-15 BErr=  1.10D-16
 DidBck=F Rises=F RFO-DIIS coefs:    1.64507   -0.64507
 Iteration  1 RMS(Cart)=  0.00283217 RMS(Int)=  0.00005019
 Iteration  2 RMS(Cart)=  0.00001287 RMS(Int)=  0.00004823
 Iteration  3 RMS(Cart)=  0.00000000 RMS(Int)=  0.00004823
 Iteration  1 RMS(Cart)=  0.00000286 RMS(Int)=  0.00000543
 Iteration  2 RMS(Cart)=  0.00000159 RMS(Int)=  0.00000606
 Iteration  3 RMS(Cart)=  0.00000088 RMS(Int)=  0.00000686
 ITry= 1 IFail=0 DXMaxC= 7.25D-03 DCOld= 1.00D+10 DXMaxT= 3.00D-01 DXLimC= 3.00D+00 Rises=F
 Variable       Old X    -DE/DX   Delta X   Delta X   Delta X     New X
                                 (Linear)    (Quad)   (Total)
    R1        2.09827  -0.00028  -0.00151   0.00011  -0.00139   2.09688
    R2        2.09828  -0.00030  -0.00151   0.00011  -0.00140   2.09688
    R3        2.09829  -0.00029  -0.00151   0.00008  -0.00142   2.09687
    R4        3.36111   0.00010   0.01150  -0.00543   0.00607   3.36718
    R5        5.51327  -0.00082   0.00000   0.00000   0.00000   5.51327
    R6        5.25358  -0.00001   0.01150   0.00086   0.01234   5.26591
    R7        5.25251  -0.00001   0.01162   0.00092   0.01251   5.26502
    R8        5.25110   0.00003   0.01177   0.00096   0.01271   5.26381
    A1        1.93283   0.00023   0.00528   0.00057   0.00573   1.93856
    A2        1.93301   0.00042   0.00544   0.00032   0.00568   1.93869
    A3        1.88771  -0.00035  -0.00560  -0.00043  -0.00602   1.88169
    A4        1.93299   0.00042   0.00541   0.00035   0.00567   1.93866
    A5        1.88775  -0.00035  -0.00559  -0.00044  -0.00603   1.88172
    A6        1.88780  -0.00042  -0.00561  -0.00043  -0.00605   1.88175
    A7        0.66981  -0.00004  -0.00076   0.00006  -0.00073   0.66908
    A8        0.66995   0.00000  -0.00074  -0.00001  -0.00076   0.66919
    A9        0.67002   0.00000  -0.00075  -0.00001  -0.00078   0.66924
   A10        3.14211   0.00002  -0.00006  -0.00002  -0.00008   3.14204
   A11        3.14197   0.00003  -0.00004  -0.00002  -0.00005   3.14193
    D1        2.15151   0.00088   0.01411   0.00120   0.01548   2.16699
    D2       -2.09424   0.00012   0.00011  -0.00019  -0.00005  -2.09428
    D3        2.09448   0.00006   0.00007  -0.00010  -0.00002   2.09446
    D4       -2.09447  -0.00006  -0.00004   0.00008   0.00003  -2.09444
    D5        0.55818   0.00007  -0.00004  -0.00010  -0.00013   0.55805
    D6       -0.55789   0.00004   0.00012  -0.00005   0.00008  -0.55782
    D7        0.55775  -0.00004  -0.00008   0.00005  -0.00005   0.55770
         Item               Value     Threshold  Converged?
 Maximum Force            0.000432     0.000450     YES
 RMS     Force            0.000207     0.000300     YES
 Maximum Displacement     0.007250     0.001800     NO 
 RMS     Displacement     0.002831     0.001200     NO 
 Predicted change in Energy=-1.435478D-05
 Lowest energy point so far.  Saving SCF results.
 GradGradGradGradGradGradGradGradGradGradGradGradGradGradGradGradGradGrad

 Leave Link  103 at Mon Nov  6 15:28:38 2017, MaxMem=   134217728 cpu:               0.0 elap:               0.0
 (Enter /n/sw/g16_nehalem/g16/l202.exe)
                          Input orientation:                          
 ---------------------------------------------------------------------
 Center     Atomic      Atomic             Coordinates (Angstroms)
 Number     Number       Type             X           Y           Z
 ---------------------------------------------------------------------
      1          6           0        0.474946   -0.000103    0.000582
      2          1           0        0.135831   -0.706298    0.786423
      3          1           0        0.135507    1.033388    0.219535
      4          1           0        0.135077   -0.327404   -1.003716
      5         17           0        2.256783   -0.000031   -0.000088
      6         17           0       -2.442549   -0.000045    0.000092
 ---------------------------------------------------------------------
                    Distance matrix (angstroms):
                    1          2          3          4          5
     1  C    0.000000
     2  H    1.109620   0.000000
     3  H    1.109623   1.829718   0.000000
     4  H    1.109617   1.829797   1.829781   0.000000
     5  Cl   1.781837   2.369778   2.369810   2.369826   0.000000
     6  Cl   2.917495   2.786602   2.786129   2.785489   4.699332
                    6
     6  Cl   0.000000
 Stoichiometry    CH3Cl2(1-)
 Framework group  C1[X(CH3Cl2)]
 Deg. of freedom    12
 Full point group                 C1      NOp   1
 RotChk:  IX=1 Diff= 6.65D-02
 Largest Abelian subgroup         C1      NOp   1
 Largest concise Abelian subgroup C1      NOp   1
                         Standard orientation:                         
 ---------------------------------------------------------------------
 Center     Atomic      Atomic             Coordinates (Angstroms)
 Number     Number       Type             X           Y           Z
 ---------------------------------------------------------------------
      1          6           0        0.472666    0.000436    0.000149
      2          1           0        0.133530    0.616848    0.858216
      3          1           0        0.133222    0.435578   -0.962500
      4          1           0        0.132821   -1.050656    0.104835
      5         17           0        2.254502   -0.000160   -0.000053
      6         17           0       -2.444830   -0.000098   -0.000032
 ---------------------------------------------------------------------
 Rotational constants (GHZ):         149.7754810           1.2919605           1.2919599
 Leave Link  202 at Mon Nov  6 15:28:38 2017, MaxMem=   134217728 cpu:               0.0 elap:               0.0
 (Enter /n/sw/g16_nehalem/g16/l301.exe)
 Standard basis: VSTO-6G (5D, 7F)
 Ernie: Thresh=  0.10000D-02 Tol=  0.10000D-05 Strict=F.
  NNHCO=     0 NNPyr=     0 NCTC=     0               EPep=         0.000000000
    EC=        30.055699230  ECS=         0.497586044   EG=         0.106076999
   EHC=         0.000000000  EAt=       -33.052413022  AtH=         0.613817027
 EPDDG=         0.000000000  ECC=        30.659362272 EAtT=        33.666230050
 There are    15 symmetry adapted cartesian basis functions of A   symmetry.
 There are    15 symmetry adapted basis functions of A   symmetry.
    15 basis functions,    90 primitive gaussians,    15 cartesian basis functions
    11 alpha electrons       11 beta electrons
       nuclear repulsion energy        64.3255923216 Hartrees.
 IExCor=    0 DFT=F Ex=HF Corr=None ExCW=0 ScaHFX=  1.000000
 ScaDFX=  1.000000  1.000000  1.000000  1.000000 ScalE2=  1.000000  1.000000
 IRadAn=      5 IRanWt=     -1 IRanGd=            0 ICorTp=0 IEmpDi=  4
 Integral buffers will be    131072 words long.
 Regular integral format.
 Two-electron integral symmetry is turned off.
 Leave Link  301 at Mon Nov  6 15:28:38 2017, MaxMem=   134217728 cpu:               0.1 elap:               0.1
 (Enter /n/sw/g16_nehalem/g16/l302.exe)
 Do NDO integrals.
 NPDir=0 NMtPBC=     1 NCelOv=     1 NCel=       1 NClECP=     1 NCelD=      1
         NCelK=      1 NCelE2=     1 NClLst=     1 CellRange=     0.0.
 One-electron integrals computed using PRISM.
 NBasis=    15 RedAO= F EigKep=  0.00D+00  NBF=    15
 NBsUse=    15 1.00D-04 EigRej=  0.00D+00 NBFU=    15
 Leave Link  302 at Mon Nov  6 15:28:38 2017, MaxMem=   134217728 cpu:               0.1 elap:               0.3
 (Enter /n/sw/g16_nehalem/g16/l303.exe)
 DipDrv:  MaxL=1.
 Leave Link  303 at Mon Nov  6 15:28:38 2017, MaxMem=   134217728 cpu:               0.1 elap:               0.1
 (Enter /n/sw/g16_nehalem/g16/l401.exe)
 Initial guess from the checkpoint file:  "/scratch/dhuang9_MeCl_scan/Gau-39239.chk"
 B after Tr=     0.000000    0.000000    0.000000
         Rot=    0.999724    0.023504    0.000000   -0.000001 Ang=   2.69 deg.
 Guess basis will be translated and rotated to current coordinates.
 JPrj=0 DoOrth=T DoCkMO=T.
 Leave Link  401 at Mon Nov  6 15:28:39 2017, MaxMem=   134217728 cpu:               0.1 elap:               0.1
 (Enter /n/sw/g16_nehalem/g16/l502.exe)
 Keep J ints in memory in canonical form, NReq=859737.
 FoFCou: FMM=F IPFlag=           0 FMFlag=           0 FMFlg1=           0
         NFxFlg=           0 DoJE=F BraDBF=F KetDBF=F FulRan=T
         wScrn=  0.000000 ICntrl=       600 IOpCl=  2 I1Cent=           0 NGrid=           0
         NMat0=    1 NMatS0=     33 NMatT0=    0 NMatD0=    1 NMtDS0=    0 NMtDT0=    0
 Symmetry not used in FoFCou.
 Two-electron integral symmetry not used.
 Closed shell SCF:
 Using DIIS extrapolation, IDIIS=  1040.
 Overlap will be assumed to be unity.
 NGot=   134217728 LenX=   134156814 LenY=   134155932
 Requested convergence on RMS density matrix=1.00D-08 within 128 cycles.
 Requested convergence on MAX density matrix=1.00D-06.
 Requested convergence on             energy=1.00D-06.
 No special actions if energy rises.

 Cycle   1  Pass 1  IDiag  1:
 E=-0.103844763336085    
 DIIS: error= 5.10D-04 at cycle   1 NSaved=   1.
 NSaved= 1 IEnMin= 1 EnMin=-0.103844763336085     IErMin= 1 ErrMin= 5.10D-04
 ErrMax= 5.10D-04  0.00D+00 EMaxC= 1.00D-01 BMatC= 3.07D-06 BMatP= 3.07D-06
 IDIUse=3 WtCom= 9.95D-01 WtEn= 5.10D-03
 Coeff-Com:  0.100D+01
 Coeff-En:   0.100D+01
 Coeff:      0.100D+01
 RMSDP=2.16D-04 MaxDP=1.10D-03              OVMax= 0.00D+00

 Cycle   2  Pass 1  IDiag  3:
 E=-0.103854876964959     Delta-E=       -0.000010113629 Rises=F Damp=F
 DIIS: error= 1.48D-04 at cycle   2 NSaved=   2.
 NSaved= 2 IEnMin= 2 EnMin=-0.103854876964959     IErMin= 2 ErrMin= 1.48D-04
 ErrMax= 1.48D-04  0.00D+00 EMaxC= 1.00D-01 BMatC= 3.12D-07 BMatP= 3.07D-06
 IDIUse=3 WtCom= 9.99D-01 WtEn= 1.48D-03
 Coeff-Com: -0.429D+00 0.143D+01
 Coeff-En:   0.000D+00 0.100D+01
 Coeff:     -0.428D+00 0.143D+01
 Gap=     0.324 Goal=   None    Shift=    0.000
 RMSDP=1.10D-04 MaxDP=5.29D-04 DE=-1.01D-05 OVMax= 6.96D-04

 Cycle   3  Pass 1  IDiag  3:
 E=-0.103856234372643     Delta-E=       -0.000001357408 Rises=F Damp=F
 DIIS: error= 1.30D-05 at cycle   3 NSaved=   3.
 NSaved= 3 IEnMin= 3 EnMin=-0.103856234372643     IErMin= 3 ErrMin= 1.30D-05
 ErrMax= 1.30D-05  0.00D+00 EMaxC= 1.00D-01 BMatC= 4.63D-09 BMatP= 3.12D-07
 IDIUse=1 WtCom= 1.00D+00 WtEn= 0.00D+00
 Coeff-Com:  0.177D+00-0.638D+00 0.146D+01
 Coeff:      0.177D+00-0.638D+00 0.146D+01
 Gap=     0.324 Goal=   None    Shift=    0.000
 RMSDP=1.75D-05 MaxDP=9.57D-05 DE=-1.36D-06 OVMax= 9.97D-05

 Cycle   4  Pass 1  IDiag  3:
 E=-0.103856259939732     Delta-E=       -0.000000025567 Rises=F Damp=F
 DIIS: error= 1.99D-06 at cycle   4 NSaved=   4.
 NSaved= 4 IEnMin= 4 EnMin=-0.103856259939732     IErMin= 4 ErrMin= 1.99D-06
 ErrMax= 1.99D-06  0.00D+00 EMaxC= 1.00D-01 BMatC= 8.92D-11 BMatP= 4.63D-09
 IDIUse=1 WtCom= 1.00D+00 WtEn= 0.00D+00
 Coeff-Com: -0.113D+00 0.406D+00-0.964D+00 0.167D+01
 Coeff:     -0.113D+00 0.406D+00-0.964D+00 0.167D+01
 Gap=     0.324 Goal=   None    Shift=    0.000
 RMSDP=3.39D-06 MaxDP=2.16D-05 DE=-2.56D-08 OVMax= 2.78D-05

 Cycle   5  Pass 1  IDiag  3:
 E=-0.103856260630067     Delta-E=       -0.000000000690 Rises=F Damp=F
 DIIS: error= 3.68D-07 at cycle   5 NSaved=   5.
 NSaved= 5 IEnMin= 5 EnMin=-0.103856260630067     IErMin= 5 ErrMin= 3.68D-07
 ErrMax= 3.68D-07  0.00D+00 EMaxC= 1.00D-01 BMatC= 1.97D-12 BMatP= 8.92D-11
 IDIUse=1 WtCom= 1.00D+00 WtEn= 0.00D+00
 Coeff-Com:  0.528D-01-0.191D+00 0.454D+00-0.841D+00 0.152D+01
 Coeff:      0.528D-01-0.191D+00 0.454D+00-0.841D+00 0.152D+01
 Gap=     0.324 Goal=   None    Shift=    0.000
 RMSDP=3.82D-07 MaxDP=2.09D-06 DE=-6.90D-10 OVMax= 0.00D+00

 Cycle   6  Pass 1  IDiag  3:
 E=-0.103856260641507     Delta-E=       -0.000000000011 Rises=F Damp=F
 DIIS: error= 5.42D-08 at cycle   6 NSaved=   6.
 NSaved= 6 IEnMin= 6 EnMin=-0.103856260641507     IErMin= 6 ErrMin= 5.42D-08
 ErrMax= 5.42D-08  0.00D+00 EMaxC= 1.00D-01 BMatC= 5.30D-14 BMatP= 1.97D-12
 IDIUse=1 WtCom= 1.00D+00 WtEn= 0.00D+00
 Coeff-Com: -0.193D-01 0.699D-01-0.166D+00 0.312D+00-0.668D+00 0.147D+01
 Coeff:     -0.193D-01 0.699D-01-0.166D+00 0.312D+00-0.668D+00 0.147D+01
 Gap=     0.324 Goal=   None    Shift=    0.000
 RMSDP=6.10D-08 MaxDP=3.09D-07 DE=-1.14D-11 OVMax= 0.00D+00

 Cycle   7  Pass 1  IDiag  3:
 E=-0.103856260641877     Delta-E=        0.000000000000 Rises=F Damp=F
 DIIS: error= 7.83D-09 at cycle   7 NSaved=   7.
 NSaved= 7 IEnMin= 7 EnMin=-0.103856260641877     IErMin= 7 ErrMin= 7.83D-09
 ErrMax= 7.83D-09  0.00D+00 EMaxC= 1.00D-01 BMatC= 9.87D-16 BMatP= 5.30D-14
 IDIUse=1 WtCom= 1.00D+00 WtEn= 0.00D+00
 Coeff-Com:  0.676D-02-0.245D-01 0.581D-01-0.109D+00 0.236D+00-0.556D+00
 Coeff-Com:  0.139D+01
 Coeff:      0.676D-02-0.245D-01 0.581D-01-0.109D+00 0.236D+00-0.556D+00
 Coeff:      0.139D+01
 Gap=     0.324 Goal=   None    Shift=    0.000
 RMSDP=8.71D-09 MaxDP=4.61D-08 DE=-3.69D-13 OVMax= 7.08D-08

 Cycle   8  Pass 2  IDiag  1:
 SCF Done:  E(RAM1) = -0.103856260642     A.U. after    8 cycles
            NFock=  7  Conv=0.87D-08     -V/T= 0.9982
 KE=-5.725258087726D+01 PE=-6.119960306915D+01 EE= 5.402273536415D+01
 Leave Link  502 at Mon Nov  6 15:28:39 2017, MaxMem=   134217728 cpu:               0.1 elap:               0.1
 (Enter /n/sw/g16_nehalem/g16/l701.exe)
 ... and contract with generalized density number  0.
 Compute integral first derivatives.
 Leave Link  701 at Mon Nov  6 15:28:39 2017, MaxMem=   134217728 cpu:               0.1 elap:               0.1
 (Enter /n/sw/g16_nehalem/g16/l702.exe)
 L702 exits ... SP integral derivatives will be done elsewhere.
 Leave Link  702 at Mon Nov  6 15:28:39 2017, MaxMem=   134217728 cpu:               0.1 elap:               0.1
 (Enter /n/sw/g16_nehalem/g16/l703.exe)
 Integral derivatives from FoFJK, PRISM(SPDF).
 Compute integral first derivatives, UseDBF=F ICtDFT=           0.
 Calling FoFJK, ICntrl=      2127 FMM=F ISym2X=0 I1Cent= 0 IOpClX= 0 NMat=1 NMatS=1 NMatT=0.
 FoFJK:  IHMeth= 8 ICntrl=    2127 DoSepK=F KAlg= 0 I1Cent=           0 FoldK=F
 IRaf=         0 NMat=       1 IRICut=       1 DoRegI=T DoRafI=F ISym2E= 0 IDoP0=3 IntGTp=3.
 FoFCou: FMM=F IPFlag=           0 FMFlag=      100000 FMFlg1=         800
         NFxFlg=           0 DoJE=F BraDBF=F KetDBF=F FulRan=T
         wScrn=  0.000000 ICntrl=      2127 IOpCl=  0 I1Cent=           0 NGrid=           0
         NMat0=    1 NMatS0=      1 NMatT0=    0 NMatD0=    1 NMtDS0=    0 NMtDT0=    0
 Symmetry not used in FoFCou.
 Leave Link  703 at Mon Nov  6 15:28:39 2017, MaxMem=   134217728 cpu:               0.0 elap:               0.1
 (Enter /n/sw/g16_nehalem/g16/l716.exe)
 Dipole        = 3.41652727D+00 4.27296523D-04 1.31333484D-04
 ***** Axes restored to original set *****
 -------------------------------------------------------------------
 Center     Atomic                   Forces (Hartrees/Bohr)
 Number     Number              X              Y              Z
 -------------------------------------------------------------------
      1        6          -0.001004322    0.000004087    0.000011638
      2        1           0.000117413    0.000001176   -0.000012075
      3        1           0.000119358   -0.000007053   -0.000008267
      4        1           0.000117020    0.000001677    0.000006992
      5       17          -0.000301676    0.000000229    0.000000230
      6       17           0.000952207   -0.000000116    0.000001482
 -------------------------------------------------------------------
 Cartesian Forces:  Max     0.001004322 RMS     0.000337356
 Leave Link  716 at Mon Nov  6 15:28:39 2017, MaxMem=   134217728 cpu:               0.0 elap:               0.1
 (Enter /n/sw/g16_nehalem/g16/l103.exe)

 GradGradGradGradGradGradGradGradGradGradGradGradGradGradGradGradGradGrad
 Berny optimization.
 Using GEDIIS/GDIIS optimizer.
 FormGI is forming the generalized inverse of G from B-inverse, IUseBI=4.
 Internal  Forces:  Max     0.000494357 RMS     0.000160078
 Search for a local minimum.
 Step number   4 out of a maximum of   36 on scan point     1 out of    41
 All quantities printed in internal units (Hartrees-Bohrs-Radians)
 RMS Force = .68177D-04 SwitMx=.10000D-02 MixMth= 2
 Mixed Optimization -- En-DIIS/RFO-DIIS
 Swapping is turned off.
 Update second derivatives using D2CorX and points    1    2    3    4
 DE= -1.55D-05 DEPred=-1.44D-05 R= 1.08D+00
 TightC=F SS=  1.41D+00  RLast= 3.10D-02 DXNew= 5.0454D-01 9.2996D-02
 Trust test= 1.08D+00 RLast= 3.10D-02 DXMaxT set to 3.00D-01
 ITU=  1  1  1  0
     Eigenvalues ---    0.01602   0.01615   0.02589   0.05375   0.05512
     Eigenvalues ---    0.10299   0.10701   0.26229   0.30107   0.30538
     Eigenvalues ---    0.317511000.000001000.000001000.000001000.00000
     Eigenvalues --- 1000.000001000.000001000.000001000.000001000.00000
[...]
 (Enter /n/sw/g16_nehalem/g16/l301.exe)
 Standard basis: VSTO-6G (5D, 7F)
 Ernie: Thresh=  0.10000D-02 Tol=  0.10000D-05 Strict=F.
  NNHCO=     0 NNPyr=     0 NCTC=     0               EPep=         0.000000000
    EC=        32.467495186  ECS=         0.744131133   EG=         0.149880193
   EHC=         0.000000000  EAt=       -33.052413022  AtH=         0.613817027
 EPDDG=         0.000000000  ECC=        33.361506513 EAtT=        33.666230050
 There are    15 symmetry adapted cartesian basis functions of A   symmetry.
 There are    15 symmetry adapted basis functions of A   symmetry.
    15 basis functions,    90 primitive gaussians,    15 cartesian basis functions
    11 alpha electrons       11 beta electrons
       nuclear repulsion energy        67.0277365623 Hartrees.



 Warning!  Cl atom    6 may be hypervalent but has no d functions.



 IExCor=    0 DFT=F Ex=HF Corr=None ExCW=0 ScaHFX=  1.000000
 ScaDFX=  1.000000  1.000000  1.000000  1.000000 ScalE2=  1.000000  1.000000
 IRadAn=      5 IRanWt=     -1 IRanGd=            0 ICorTp=0 IEmpDi=  4
 Integral buffers will be    131072 words long.
 Regular integral format.
 Two-electron integral symmetry is turned off.
 Leave Link  301 at Mon Nov  6 15:31:03 2017, MaxMem=   134217728 cpu:               0.1 elap:               0.1
 (Enter /n/sw/g16_nehalem/g16/l302.exe)
 Do NDO integrals.
 NPDir=0 NMtPBC=     1 NCelOv=     1 NCel=       1 NClECP=     1 NCelD=      1
         NCelK=      1 NCelE2=     1 NClLst=     1 CellRange=     0.0.
 One-electron integrals computed using PRISM.
 NBasis=    15 RedAO= F EigKep=  0.00D+00  NBF=    15
 NBsUse=    15 1.00D-04 EigRej=  0.00D+00 NBFU=    15
 Leave Link  302 at Mon Nov  6 15:31:03 2017, MaxMem=   134217728 cpu:               0.1 elap:               0.1
 (Enter /n/sw/g16_nehalem/g16/l303.exe)
 DipDrv:  MaxL=1.
 Leave Link  303 at Mon Nov  6 15:31:03 2017, MaxMem=   134217728 cpu:               0.0 elap:               0.1
 (Enter /n/sw/g16_nehalem/g16/l401.exe)
 Initial guess from the checkpoint file:  "/scratch/dhuang9_MeCl_scan/Gau-39239.chk"
 B after Tr=     0.000000    0.000000    0.000000
         Rot=    1.000000    0.000079    0.000105   -0.000225 Ang=   0.03 deg.
 Guess basis will be translated and rotated to current coordinates.
 JPrj=0 DoOrth=T DoCkMO=T.
 Leave Link  401 at Mon Nov  6 15:31:03 2017, MaxMem=   134217728 cpu:               0.1 elap:               0.1
 (Enter /n/sw/g16_nehalem/g16/l502.exe)
 Keep J ints in memory in canonical form, NReq=859737.
 FoFCou: FMM=F IPFlag=           0 FMFlag=           0 FMFlg1=           0
         NFxFlg=           0 DoJE=F BraDBF=F KetDBF=F FulRan=T
         wScrn=  0.000000 ICntrl=       600 IOpCl=  2 I1Cent=           0 NGrid=           0
         NMat0=    1 NMatS0=     33 NMatT0=    0 NMatD0=    1 NMtDS0=    0 NMtDT0=    0
 Symmetry not used in FoFCou.
 Two-electron integral symmetry not used.
 Closed shell SCF:
 Using DIIS extrapolation, IDIIS=  1040.
 Overlap will be assumed to be unity.
 NGot=   134217728 LenX=   134156814 LenY=   134155932
 Requested convergence on RMS density matrix=1.00D-08 within 128 cycles.
 Requested convergence on MAX density matrix=1.00D-06.
 Requested convergence on             energy=1.00D-06.
 No special actions if energy rises.

 Cycle   1  Pass 1  IDiag  1:
 E= 0.126007716448981E-01
 DIIS: error= 1.50D-03 at cycle   1 NSaved=   1.
 NSaved= 1 IEnMin= 1 EnMin= 0.126007716448981E-01 IErMin= 1 ErrMin= 1.50D-03
 ErrMax= 1.50D-03  0.00D+00 EMaxC= 1.00D-01 BMatC= 3.26D-05 BMatP= 3.26D-05
 IDIUse=3 WtCom= 9.85D-01 WtEn= 1.50D-02
 Coeff-Com:  0.100D+01
 Coeff-En:   0.100D+01
 Coeff:      0.100D+01
 GapD=    2.000 DampG=2.000 DampE=1.000 DampFc=2.0000 IDamp=-1.
 RMSDP=6.49D-04 MaxDP=2.61D-03              OVMax= 0.00D+00

 Cycle   2  Pass 1  IDiag  3:
 E= 0.125016960089113E-01 Delta-E=       -0.000099075636 Rises=F Damp=F
 DIIS: error= 4.11D-04 at cycle   2 NSaved=   2.
 NSaved= 2 IEnMin= 2 EnMin= 0.125016960089113E-01 IErMin= 2 ErrMin= 4.11D-04
 ErrMax= 4.11D-04  0.00D+00 EMaxC= 1.00D-01 BMatC= 3.56D-06 BMatP= 3.26D-05
 IDIUse=3 WtCom= 9.96D-01 WtEn= 4.11D-03
 Coeff-Com: -0.396D+00 0.140D+01
 Coeff-En:   0.000D+00 0.100D+01
 Coeff:     -0.395D+00 0.139D+01
 Gap=     0.381 Goal=   None    Shift=    0.000
 RMSDP=3.70D-04 MaxDP=1.07D-03 DE=-9.91D-05 OVMax= 1.51D-03

 Cycle   3  Pass 1  IDiag  3:
 E= 0.124844922071077E-01 Delta-E=       -0.000017203802 Rises=F Damp=F
 DIIS: error= 7.69D-05 at cycle   3 NSaved=   3.
 NSaved= 3 IEnMin= 3 EnMin= 0.124844922071077E-01 IErMin= 3 ErrMin= 7.69D-05
 ErrMax= 7.69D-05  0.00D+00 EMaxC= 1.00D-01 BMatC= 2.17D-07 BMatP= 3.56D-06
 IDIUse=1 WtCom= 1.00D+00 WtEn= 0.00D+00
 Coeff-Com:  0.249D+00-0.976D+00 0.173D+01
 Coeff:      0.249D+00-0.976D+00 0.173D+01
 Gap=     0.381 Goal=   None    Shift=    0.000
 RMSDP=1.41D-04 MaxDP=4.89D-04 DE=-1.72D-05 OVMax= 7.74D-04

 Cycle   4  Pass 1  IDiag  3:
 E= 0.124829708808676E-01 Delta-E=       -0.000001521326 Rises=F Damp=F
 DIIS: error= 1.38D-05 at cycle   4 NSaved=   4.
 NSaved= 4 IEnMin= 4 EnMin= 0.124829708808676E-01 IErMin= 4 ErrMin= 1.38D-05
 ErrMax= 1.38D-05  0.00D+00 EMaxC= 1.00D-01 BMatC= 8.52D-09 BMatP= 2.17D-07
 IDIUse=1 WtCom= 1.00D+00 WtEn= 0.00D+00
 Coeff-Com: -0.167D+00 0.661D+00-0.127D+01 0.178D+01
 Coeff:     -0.167D+00 0.661D+00-0.127D+01 0.178D+01
 Gap=     0.381 Goal=   None    Shift=    0.000
 RMSDP=3.57D-05 MaxDP=1.17D-04 DE=-1.52D-06 OVMax= 2.87D-04

 Cycle   5  Pass 1  IDiag  3:
 E= 0.124828902465026E-01 Delta-E=       -0.000000080634 Rises=F Damp=F
 DIIS: error= 3.75D-06 at cycle   5 NSaved=   5.
 NSaved= 5 IEnMin= 5 EnMin= 0.124828902465026E-01 IErMin= 5 ErrMin= 3.75D-06
 ErrMax= 3.75D-06  0.00D+00 EMaxC= 1.00D-01 BMatC= 5.18D-10 BMatP= 8.52D-09
 IDIUse=1 WtCom= 1.00D+00 WtEn= 0.00D+00
 Coeff-Com:  0.923D-01-0.368D+00 0.717D+00-0.115D+01 0.171D+01
 Coeff:      0.923D-01-0.368D+00 0.717D+00-0.115D+01 0.171D+01
 Gap=     0.381 Goal=   None    Shift=    0.000
 RMSDP=9.16D-06 MaxDP=3.45D-05 DE=-8.06D-08 OVMax= 6.55D-05

 Cycle   6  Pass 1  IDiag  3:
 E= 0.124828854328456E-01 Delta-E=       -0.000000004814 Rises=F Damp=F
 DIIS: error= 8.86D-07 at cycle   6 NSaved=   6.
 NSaved= 6 IEnMin= 6 EnMin= 0.124828854328456E-01 IErMin= 6 ErrMin= 8.86D-07
 ErrMax= 8.86D-07  0.00D+00 EMaxC= 1.00D-01 BMatC= 2.42D-11 BMatP= 5.18D-10
 IDIUse=1 WtCom= 1.00D+00 WtEn= 0.00D+00
 Coeff-Com: -0.399D-01 0.159D+00-0.311D+00 0.518D+00-0.923D+00 0.160D+01
 Coeff:     -0.399D-01 0.159D+00-0.311D+00 0.518D+00-0.923D+00 0.160D+01
 Gap=     0.381 Goal=   None    Shift=    0.000
 RMSDP=1.77D-06 MaxDP=8.89D-06 DE=-4.81D-09 OVMax= 9.75D-06

 Cycle   7  Pass 1  IDiag  3:
 E= 0.124828852416670E-01 Delta-E=       -0.000000000191 Rises=F Damp=F
 DIIS: error= 1.76D-07 at cycle   7 NSaved=   7.
 NSaved= 7 IEnMin= 7 EnMin= 0.124828852416670E-01 IErMin= 7 ErrMin= 1.76D-07
 ErrMax= 1.76D-07  0.00D+00 EMaxC= 1.00D-01 BMatC= 7.90D-13 BMatP= 2.42D-11
 IDIUse=1 WtCom= 1.00D+00 WtEn= 0.00D+00
 Coeff-Com:  0.189D-01-0.755D-01 0.147D+00-0.246D+00 0.444D+00-0.846D+00
 Coeff-Com:  0.156D+01
 Coeff:      0.189D-01-0.755D-01 0.147D+00-0.246D+00 0.444D+00-0.846D+00
 Coeff:      0.156D+01
 Gap=     0.381 Goal=   None    Shift=    0.000
 RMSDP=2.93D-07 MaxDP=1.42D-06 DE=-1.91D-10 OVMax= 1.85D-06

 Cycle   8  Pass 1  IDiag  3:
 E= 0.124828852352437E-01 Delta-E=       -0.000000000006 Rises=F Damp=F
 DIIS: error= 4.48D-08 at cycle   8 NSaved=   8.
 NSaved= 8 IEnMin= 8 EnMin= 0.124828852352437E-01 IErMin= 8 ErrMin= 4.48D-08
 ErrMax= 4.48D-08  0.00D+00 EMaxC= 1.00D-01 BMatC= 6.11D-14 BMatP= 7.90D-13
 IDIUse=1 WtCom= 1.00D+00 WtEn= 0.00D+00
 Coeff-Com: -0.737D-02 0.294D-01-0.575D-01 0.956D-01-0.172D+00 0.336D+00
 Coeff-Com: -0.790D+00 0.157D+01
 Coeff:     -0.737D-02 0.294D-01-0.575D-01 0.956D-01-0.172D+00 0.336D+00
 Coeff:     -0.790D+00 0.157D+01
 Gap=     0.381 Goal=   None    Shift=    0.000
 RMSDP=9.07D-08 MaxDP=4.13D-07 DE=-6.42D-12 OVMax= 5.64D-07

 Cycle   9  Pass 1  IDiag  3:
 E= 0.124828852347889E-01 Delta-E=        0.000000000000 Rises=F Damp=F
 DIIS: error= 1.44D-08 at cycle   9 NSaved=   9.
 NSaved= 9 IEnMin= 9 EnMin= 0.124828852347889E-01 IErMin= 9 ErrMin= 1.44D-08
 ErrMax= 1.44D-08  0.00D+00 EMaxC= 1.00D-01 BMatC= 6.34D-15 BMatP= 6.11D-14
 IDIUse=1 WtCom= 1.00D+00 WtEn= 0.00D+00
 Coeff-Com:  0.173D-02-0.690D-02 0.135D-01-0.224D-01 0.406D-01-0.832D-01
 Coeff-Com:  0.249D+00-0.830D+00 0.164D+01
 Coeff:      0.173D-02-0.690D-02 0.135D-01-0.224D-01 0.406D-01-0.832D-01
 Coeff:      0.249D+00-0.830D+00 0.164D+01
 Gap=     0.381 Goal=   None    Shift=    0.000
 RMSDP=3.31D-08 MaxDP=1.35D-07 DE=-4.55D-13 OVMax= 1.95D-07

 Cycle  10  Pass 1  IDiag  3:
 E= 0.124828852347036E-01 Delta-E=        0.000000000000 Rises=F Damp=F
 DIIS: error= 2.67D-09 at cycle  10 NSaved=  10.
 NSaved=10 IEnMin=10 EnMin= 0.124828852347036E-01 IErMin=10 ErrMin= 2.67D-09
 ErrMax= 2.67D-09  0.00D+00 EMaxC= 1.00D-01 BMatC= 2.15D-16 BMatP= 6.34D-15
 IDIUse=1 WtCom= 1.00D+00 WtEn= 0.00D+00
 Coeff-Com: -0.906D-04 0.365D-03-0.709D-03 0.118D-02-0.224D-02 0.565D-02
 Coeff-Com: -0.274D-01 0.152D+00-0.489D+00 0.136D+01
 Coeff:     -0.906D-04 0.365D-03-0.709D-03 0.118D-02-0.224D-02 0.565D-02
 Coeff:     -0.274D-01 0.152D+00-0.489D+00 0.136D+01
 Gap=     0.381 Goal=   None    Shift=    0.000
 RMSDP=5.26D-09 MaxDP=2.11D-08 DE=-8.53D-14 OVMax= 2.81D-08

 Cycle  11  Pass 2  IDiag  1:
 SCF Done:  E(RAM1) =  0.124828852347E-01 A.U. after   11 cycles
            NFock= 10  Conv=0.53D-08     -V/T= 1.0002
 KE=-5.682169881384D+01 PE=-6.650801697764D+01 EE= 5.631446211445D+01
 Leave Link  502 at Mon Nov  6 15:31:03 2017, MaxMem=   134217728 cpu:               0.1 elap:               0.1
 (Enter /n/sw/g16_nehalem/g16/l701.exe)
 ... and contract with generalized density number  0.
 Compute integral first derivatives.
 Leave Link  701 at Mon Nov  6 15:31:03 2017, MaxMem=   134217728 cpu:               0.1 elap:               0.1
 (Enter /n/sw/g16_nehalem/g16/l702.exe)
 L702 exits ... SP integral derivatives will be done elsewhere.
 Leave Link  702 at Mon Nov  6 15:31:03 2017, MaxMem=   134217728 cpu:               0.1 elap:               0.1
 (Enter /n/sw/g16_nehalem/g16/l703.exe)
 Integral derivatives from FoFJK, PRISM(SPDF).
 Compute integral first derivatives, UseDBF=F ICtDFT=           0.
 Calling FoFJK, ICntrl=      2127 FMM=F ISym2X=0 I1Cent= 0 IOpClX= 0 NMat=1 NMatS=1 NMatT=0.
 FoFJK:  IHMeth= 8 ICntrl=    2127 DoSepK=F KAlg= 0 I1Cent=           0 FoldK=F
 IRaf=         0 NMat=       1 IRICut=       1 DoRegI=T DoRafI=F ISym2E= 0 IDoP0=3 IntGTp=3.
 FoFCou: FMM=F IPFlag=           0 FMFlag=      100000 FMFlg1=         800
         NFxFlg=           0 DoJE=F BraDBF=F KetDBF=F FulRan=T
         wScrn=  0.000000 ICntrl=      2127 IOpCl=  0 I1Cent=           0 NGrid=           0
         NMat0=    1 NMatS0=      1 NMatT0=    0 NMatD0=    1 NMtDS0=    0 NMtDT0=    0
 Symmetry not used in FoFCou.
 Leave Link  703 at Mon Nov  6 15:31:03 2017, MaxMem=   134217728 cpu:               0.1 elap:               0.1
 (Enter /n/sw/g16_nehalem/g16/l716.exe)
 Dipole        =-3.10426119D+00-1.07005517D-01-6.65364207D-03
 ***** Axes restored to original set *****
 -------------------------------------------------------------------
 Center     Atomic                   Forces (Hartrees/Bohr)
 Number     Number              X              Y              Z
 -------------------------------------------------------------------
      1        6           0.326318201    0.090212163    0.267325545
      2        1          -0.001174490   -0.001767309    0.003092273
      3        1          -0.000342771   -0.005978549   -0.001327889
      4        1           0.001197703   -0.001157401   -0.004848340
      5       17           0.000331046    0.000097621    0.000443300
      6       17          -0.326329689   -0.081406526   -0.264684890
 -------------------------------------------------------------------
 Cartesian Forces:  Max     0.326329689 RMS     0.143244006
 Leave Link  716 at Mon Nov  6 15:31:04 2017, MaxMem=   134217728 cpu:               0.1 elap:               0.1
 (Enter /n/sw/g16_nehalem/g16/l103.exe)

 GradGradGradGradGradGradGradGradGradGradGradGradGradGradGradGradGradGrad
 Berny optimization.
 Using GEDIIS/GDIIS optimizer.
 FormGI is forming the generalized inverse of G from B-inverse, IUseBI=4.
 Internal  Forces:  Max     0.196024004 RMS     0.056989793
 Search for a local minimum.
 Step number  36 out of a maximum of   36 on scan point    32 out of    41
 All quantities printed in internal units (Hartrees-Bohrs-Radians)
 RMS Force = .19568D-02 SwitMx=.10000D-02 MixMth= 1
 Mixed Optimization -- RFO/linear search
 Update second derivatives using D2CorX and points    8   11   12   14   15
                                                     16   17   18   13   20
                                                     21   19   23   25   24
                                                     26   27   22   28   30
                                                     31   29   33   34   32
                                                     36   35
 ITU=  0  0 -1  0  0 -1  0  1  0  0  0  0  0 -1  0 -1  0  0  0  0
 ITU=  0 -1  0  1  1  0 -1
 Use linear search instead of GDIIS.
     Eigenvalues ---    0.00000   0.00001   0.00297   0.00871   0.02876
     Eigenvalues ---    0.04166   0.04691   0.07126   0.11774   0.20497
     Eigenvalues ---    0.218821000.000001000.000001000.000001000.00000
     Eigenvalues --- 1000.000001000.000001000.000001000.000001000.00000
     Eigenvalues --- 1000.000001000.000001000.000001000.000001000.00000
     Eigenvalues --- 1000.00000
 RFO step:  Lambda=-2.15421049D-03 EMin= 1.17296235D-06
 Skip linear search -- no minimum in search direction.
 Maximum step size (   0.050) exceeded in Quadratic search.
    -- Step size scaled by   0.087
 Iteration  1 RMS(Cart)=  0.00904397 RMS(Int)=  0.00114659
 Iteration  2 RMS(Cart)=  0.00030666 RMS(Int)=  0.00009372
 Iteration  3 RMS(Cart)=  0.00000518 RMS(Int)=  0.00009353
 Iteration  4 RMS(Cart)=  0.00000000 RMS(Int)=  0.00009353
 Iteration  1 RMS(Cart)=  0.00001959 RMS(Int)=  0.00003815
 Iteration  2 RMS(Cart)=  0.00001067 RMS(Int)=  0.00004262
 Iteration  3 RMS(Cart)=  0.00000581 RMS(Int)=  0.00004813
 Iteration  4 RMS(Cart)=  0.00000316 RMS(Int)=  0.00005176
 Iteration  5 RMS(Cart)=  0.00000172 RMS(Int)=  0.00005388
 Iteration  6 RMS(Cart)=  0.00000094 RMS(Int)=  0.00005507
 ITry= 1 IFail=0 DXMaxC= 2.26D-02 DCOld= 1.00D+10 DXMaxT= 5.00D-02 DXLimC= 3.00D+00 Rises=F
 Variable       Old X    -DE/DX   Delta X   Delta X   Delta X     New X
                                 (Linear)    (Quad)   (Total)
    R1        2.14073  -0.05927   0.00000   0.00253   0.00265   2.14338
    R2        2.17715  -0.06963   0.00000  -0.00910  -0.00888   2.16827
    R3        2.27789  -0.05473   0.00000   0.01080   0.01093   2.28882
    R4        5.84661   0.00015   0.00000  -0.00181  -0.00181   5.84480
    R5        2.58419   0.19602   0.00000   0.00000   0.00000   2.58419
    R6        4.04290   0.08527   0.00000   0.00706   0.00690   4.04980
    R7        4.04437   0.08559   0.00000   0.01494   0.01467   4.05904
    R8        4.20108   0.07436   0.00000  -0.01752  -0.01770   4.18338
    A1        1.78511   0.01800   0.00000   0.00749   0.00744   1.79254
    A2        1.73102   0.05004   0.00000  -0.01162  -0.01168   1.71933
    A3        1.72827   0.03126   0.00000  -0.01131  -0.01130   1.71696
    A4        1.73367   0.05412   0.00000   0.00374   0.00363   1.73729
    A5        1.72902   0.02228   0.00000   0.00435   0.00435   1.73337
    A6        0.00613   0.04212   0.00000  -0.00075  -0.00090   0.00523
    A7        0.85754  -0.03999   0.00000  -0.00113  -0.00104   0.85650
    A8        0.84025  -0.02122   0.00000  -0.00029  -0.00028   0.83997
    A9        0.84837  -0.02184   0.00000   0.00246   0.00251   0.85087
   A10        3.77653  -0.00078   0.00000  -0.00722  -0.00742   3.76911
   A11        4.00741  -0.00261   0.00000   0.03582   0.03580   4.04321
    D1       -1.81819  -0.04041   0.00000  -0.00609  -0.00596  -1.82415
    D2       -1.81667  -0.02952   0.00000  -0.00632  -0.00622  -1.82288
    D3        2.03592  -0.01471   0.00000   0.00542   0.00547   2.04139
    D4       -2.43060   0.01481   0.00000   0.01173   0.01168  -2.41892
    D5        0.57833   0.00460   0.00000  -0.02231  -0.02232   0.55601
    D6       -0.58228   0.00055   0.00000  -0.02673  -0.02674  -0.60903
    D7        0.58406  -0.00605   0.00000   0.01158   0.01178   0.59584
         Item               Value     Threshold  Converged?
 Maximum Force            0.005358     0.000450     NO 
 RMS     Force            0.001957     0.000300     NO 
 Maximum Displacement     0.022646     0.001800     NO 
 RMS     Displacement     0.009350     0.001200     NO 
 Predicted change in Energy=-1.812186D-04
 Optimization stopped.
    -- Number of steps exceeded,  NStep=  36
    -- Flag reset to prevent archiving.
                           ----------------------------
                           ! Non-Optimized Parameters !
                           ! (Angstroms and Degrees)  !
 --------------------------                            --------------------------
 ! Name  Definition              Value          Derivative Info.                !
 --------------------------------------------------------------------------------
 ! R1    R(1,2)                  1.1342         -DE/DX =   -0.0593              !
 ! R2    R(1,3)                  1.1474         -DE/DX =   -0.0696              !
 ! R3    R(1,4)                  1.2112         -DE/DX =   -0.0547              !
 ! R4    R(1,5)                  3.0929         -DE/DX =    0.0002              !
 ! R5    R(1,6)                  1.3675         -DE/DX =    0.196               !
 ! R6    R(2,6)                  2.1431         -DE/DX =    0.0853              !
 ! R7    R(3,6)                  2.148          -DE/DX =    0.0856              !
 ! R8    R(4,6)                  2.2137         -DE/DX =    0.0744              !
 ! A1    A(2,1,3)              102.7052         -DE/DX =    0.018               !
 ! A2    A(2,1,4)               98.5106         -DE/DX =    0.05                !
 ! A3    A(2,1,5)               98.3748         -DE/DX =    0.0313              !
 ! A4    A(3,1,4)               99.5396         -DE/DX =    0.0541              !
 ! A5    A(3,1,5)               99.3149         -DE/DX =    0.0223              !
 ! A6    A(4,1,5)                0.2997         -DE/DX =    0.0421              !
 ! A7    A(2,6,3)               49.0739         -DE/DX =   -0.04                !
 ! A8    A(2,6,4)               48.127          -DE/DX =   -0.0212              !
 ! A9    A(3,6,4)               48.7514         -DE/DX =   -0.0218              !
 ! A10   L(5,1,6,2,-1)         215.9542         -DE/DX =   -0.0008              !
 ! A11   L(5,1,6,2,-2)         231.6588         -DE/DX =   -0.0026              !
 ! D1    D(2,1,4,3)           -104.5159         -DE/DX =   -0.0404              !
 ! D2    D(2,1,5,3)           -104.4434         -DE/DX =   -0.0295              !
 ! D3    D(2,1,5,4)            116.9629         -DE/DX =   -0.0147              !
 ! D4    D(3,1,5,4)           -138.5938         -DE/DX =    0.0148              !
 ! D5    D(3,2,6,1)             31.8571         -DE/DX =    0.0046              !
 ! D6    D(4,2,6,1)            -34.8946         -DE/DX =    0.0006              !
 ! D7    D(4,3,6,1)             34.1388         -DE/DX =   -0.006               !
 --------------------------------------------------------------------------------
 New curvilinear step failed, DQL= 4.44D+00 SP=-6.07D-02.
 RedCar failed.
 Error termination via Lnk1e in /n/sw/g16_nehalem/g16/l103.exe at Mon Nov  6 15:31:04 2017.
 Job cpu time:       0 days  0 hours  2 minutes 15.7 seconds.
 Elapsed time:       0 days  0 hours  2 minutes  8.0 seconds.
 File lengths (MBytes):  RWF=      6 Int=      0 D2E=      0 Chk=      3 Scr=      1
