 Entering Gaussian System, Link 0=g16
 Input=MeCl_precomplex.gjf
 Output=MeCl_precomplex.out
 Initial command:
 /n/sw/g16_nehalem/g16/l1.exe "/scratch/dhuang9_MeCl_precomplex/Gau-53856.inp" -scrdir="/scratch/dhuang9_MeCl_precomplex/"
 Entering Link 1 = /n/sw/g16_nehalem/g16/l1.exe PID=     53863.
  
 Copyright (c) 1988,1990,1992,1993,1995,1998,2003,2009,2016,
            Gaussian, Inc.  All Rights Reserved.
  
 This is part of the Gaussian(R) 16 program.  It is based on
 the Gaussian(R) 09 system (copyright 2009, Gaussian, Inc.),
 the Gaussian(R) 03 system (copyright 2003, Gaussian, Inc.),
 the Gaussian(R) 98 system (copyright 1998, Gaussian, Inc.),
 the Gaussian(R) 94 system (copyright 1995, Gaussian, Inc.),
 the Gaussian 92(TM) system (copyright 1992, Gaussian, Inc.),
 the Gaussian 90(TM) system (copyright 1990, Gaussian, Inc.),
 the Gaussian 88(TM) system (copyright 1988, Gaussian, Inc.),
 the Gaussian 86(TM) system (copyright 1986, Carnegie Mellon
 University), and the Gaussian 82(TM) system (copyright 1983,
 Carnegie Mellon University). Gaussian is a federally registered
 trademark of Gaussian, Inc.
  
 This software contains proprietary and confidential information,
 including trade secrets, belonging to Gaussian, Inc.
  
 This software is provided under written license and may be
 used, copied, transmitted, or stored only in accord with that
 written license.
  
 The following legend is applicable only to US Government
 contracts under FAR:
  
                    RESTRICTED RIGHTS LEGEND
  
 Use, reproduction and disclosure by the US Government is
 subject to restrictions as set forth in subparagraphs (a)
 and (c) of the Commercial Computer Software - Restricted
 Rights clause in FAR 52.227-19.
  
 Gaussian, Inc.
 340 Quinnipiac St., Bldg. 40, Wallingford CT 06492
  
  
 ---------------------------------------------------------------
 Warning -- This program may not be used in any manner that
 competes with the business of Gaussian, Inc. or will provide
 assistance to any competitor of Gaussian, Inc.  The licensee
 of this program is prohibited from giving any competitor of
 Gaussian, Inc. access to this program.  By using this program,
 the user acknowledges that Gaussian, Inc. is engaged in the
 business of creating and licensing software in the field of
 computational chemistry and represents and warrants to the
 licensee that it is not a competitor of Gaussian, Inc. and that
 it will not use this program in any manner prohibited above.
 ---------------------------------------------------------------
  

 Cite this work as:
 Gaussian 16, Revision A.03,
 M. J. Frisch, G. W. Trucks, H. B. Schlegel, G. E. Scuseria, 
 M. A. Robb, J. R. Cheeseman, G. Scalmani, V. Barone, 
 G. A. Petersson, H. Nakatsuji, X. Li, M. Caricato, A. V. Marenich, 
 J. Bloino, B. G. Janesko, R. Gomperts, B. Mennucci, H. P. Hratchian, 
 J. V. Ortiz, A. F. Izmaylov, J. L. Sonnenberg, D. Williams-Young, 
 F. Ding, F. Lipparini, F. Egidi, J. Goings, B. Peng, A. Petrone, 
 T. Henderson, D. Ranasinghe, V. G. Zakrzewski, J. Gao, N. Rega, 
 G. Zheng, W. Liang, M. Hada, M. Ehara, K. Toyota, R. Fukuda, 
 J. Hasegawa, M. Ishida, T. Nakajima, Y. Honda, O. Kitao, H. Nakai, 
 T. Vreven, K. Throssell, J. A. Montgomery, Jr., J. E. Peralta, 
 F. Ogliaro, M. J. Bearpark, J. J. Heyd, E. N. Brothers, K. N. Kudin, 
 V. N. Staroverov, T. A. Keith, R. Kobayashi, J. Normand, 
 K. Raghavachari, A. P. Rendell, J. C. Burant, S. S. Iyengar, 
 J. Tomasi, M. Cossi, J. M. Millam, M. Klene, C. Adamo, R. Cammi, 
 J. W. Ochterski, R. L. Martin, K. Morokuma, O. Farkas, 
 J. B. Foresman, and D. J. Fox, Gaussian, Inc., Wallingford CT, 2016.
 
 ******************************************
 Gaussian 16:  ES64L-G16RevA.03 25-Dec-2016
                 6-Nov-2017 
 ******************************************
 %mem=1GB
 -----------------------
 #p am1 opt freq=noraman
 -----------------------
 1/18=20,19=15,26=1,38=1/1,3;
 2/9=110,12=2,17=6,18=5,40=1/2;
 3/5=2,25=1,41=700000,71=1/1,2,3;
 4/35=1/1;
 5/5=2,35=1,38=5/2;
 6/7=2,8=2,9=2,10=2,28=1/1;
 7//1,2,3,16;
 1/18=20,19=15,26=1/3(2);
 2/9=110/2;
 99//99;
 2/9=110/2;
 3/5=2,25=1,41=700000,71=1,135=20/1,2,3;
 4/5=5,16=3,35=1/1;
 5/5=2,35=1,38=5/2;
 7//1,2,3,16;
 1/18=20,19=15,26=1/3(-5);
 2/9=110/2;
 6/7=2,8=2,9=2,10=2,19=2,28=1/1;
 99/9=1/99;
 Leave Link    1 at Mon Nov  6 15:52:06 2017, MaxMem=   134217728 cpu:               0.0 elap:               0.1
 (Enter /n/sw/g16_nehalem/g16/l101.exe)
 --------
 MeCl pre
 --------
 Symbolic Z-matrix:
 Charge = -1 Multiplicity = 1
 C                    -0.38412   0.00001   0. 
 H                     0.04024  -0.60023  -0.91843 
 H                     0.04024  -0.49526   0.97903 
 H                     0.04027   1.09551  -0.0606 
 Cl                    2.21812  0.         0. 
 Cl                   -2.09012  0.         0. 
 
 Add virtual bond connecting atoms Cl5        and H2         Dist= 4.61D+00.
 Add virtual bond connecting atoms Cl5        and H3         Dist= 4.61D+00.
 Add virtual bond connecting atoms Cl5        and H4         Dist= 4.61D+00.
 ITRead=  0  0  0  0  0  0
 MicOpt= -1 -1 -1 -1 -1 -1
 NAtoms=      6 NQM=        6 NQMF=       0 NMMI=      0 NMMIF=      0
                NMic=       0 NMicF=      0.
                    Isotopes and Nuclear Properties:
 (Nuclear quadrupole moments (NQMom) in fm**2, nuclear magnetic moments (NMagM)
  in nuclear magnetons)

  Atom         1           2           3           4           5           6
 IAtWgt=          12           1           1           1          35          35
 AtmWgt=  12.0000000   1.0078250   1.0078250   1.0078250  34.9688527  34.9688527
 NucSpn=           0           1           1           1           3           3
 AtZEff=   0.0000000   0.0000000   0.0000000   0.0000000   0.0000000   0.0000000
 NQMom=    0.0000000   0.0000000   0.0000000   0.0000000  -8.1650000  -8.1650000
 NMagM=    0.0000000   2.7928460   2.7928460   2.7928460   0.8218740   0.8218740
 AtZNuc=   6.0000000   1.0000000   1.0000000   1.0000000  17.0000000  17.0000000
 Leave Link  101 at Mon Nov  6 15:52:06 2017, MaxMem=   134217728 cpu:               0.4 elap:               0.4
 (Enter /n/sw/g16_nehalem/g16/l103.exe)

 GradGradGradGradGradGradGradGradGradGradGradGradGradGradGradGradGradGrad
 Berny optimization.
 Initialization pass.
                           ----------------------------
                           !    Initial Parameters    !
                           ! (Angstroms and Degrees)  !
 --------------------------                            --------------------------
 ! Name  Definition              Value          Derivative Info.                !
 --------------------------------------------------------------------------------
 ! R1    R(1,2)                  1.1764         estimate D2E/DX2                !
 ! R2    R(1,3)                  1.1764         estimate D2E/DX2                !
 ! R3    R(1,4)                  1.1764         estimate D2E/DX2                !
 ! R4    R(1,6)                  1.706          estimate D2E/DX2                !
 ! R5    R(2,5)                  2.4386         estimate D2E/DX2                !
 ! R6    R(3,5)                  2.4386         estimate D2E/DX2                !
 ! R7    R(4,5)                  2.4386         estimate D2E/DX2                !
 ! A1    A(2,1,3)              107.7462         estimate D2E/DX2                !
 ! A2    A(2,1,4)              107.746          estimate D2E/DX2                !
 ! A3    A(2,1,6)              111.1451         estimate D2E/DX2                !
 ! A4    A(3,1,4)              107.7459         estimate D2E/DX2                !
 ! A5    A(3,1,6)              111.1452         estimate D2E/DX2                !
 ! A6    A(4,1,6)              111.147          estimate D2E/DX2                !
 ! A7    A(1,2,5)               84.4074         estimate D2E/DX2                !
 ! A8    A(1,3,5)               84.4074         estimate D2E/DX2                !
 ! A9    A(1,4,5)               84.4081         estimate D2E/DX2                !
 ! A10   A(2,5,3)               45.8636         estimate D2E/DX2                !
 ! A11   A(2,5,4)               45.8639         estimate D2E/DX2                !
 ! A12   A(3,5,4)               45.8639         estimate D2E/DX2                !
 ! D1    D(3,1,2,5)            -58.0024         estimate D2E/DX2                !
 ! D2    D(4,1,2,5)             58.0014         estimate D2E/DX2                !
 ! D3    D(6,1,2,5)           -179.9994         estimate D2E/DX2                !
 ! D4    D(2,1,3,5)             58.0024         estimate D2E/DX2                !
 ! D5    D(4,1,3,5)            -58.0014         estimate D2E/DX2                !
 ! D6    D(6,1,3,5)            179.9994         estimate D2E/DX2                !
 ! D7    D(2,1,4,5)            -58.002          estimate D2E/DX2                !
 ! D8    D(3,1,4,5)             58.002          estimate D2E/DX2                !
 ! D9    D(6,1,4,5)           -180.0            estimate D2E/DX2                !
 ! D10   D(1,2,5,3)             32.8818         estimate D2E/DX2                !
 ! D11   D(1,2,5,4)            -32.8818         estimate D2E/DX2                !
 ! D12   D(1,3,5,2)            -32.8818         estimate D2E/DX2                !
 ! D13   D(1,3,5,4)             32.8819         estimate D2E/DX2                !
 ! D14   D(1,4,5,2)             32.8815         estimate D2E/DX2                !
 ! D15   D(1,4,5,3)            -32.8815         estimate D2E/DX2                !
 --------------------------------------------------------------------------------
 Trust Radius=3.00D-01 FncErr=1.00D-07 GrdErr=1.00D-07 EigMax=2.50D+02 EigMin=1.00D-04
 Number of steps in this run=     44 maximum allowed number of steps=    100.
 GradGradGradGradGradGradGradGradGradGradGradGradGradGradGradGradGradGrad

 Leave Link  103 at Mon Nov  6 15:52:07 2017, MaxMem=   134217728 cpu:               0.0 elap:               0.0
 (Enter /n/sw/g16_nehalem/g16/l202.exe)
                          Input orientation:                          
 ---------------------------------------------------------------------
 Center     Atomic      Atomic             Coordinates (Angstroms)
 Number     Number       Type             X           Y           Z
 ---------------------------------------------------------------------
      1          6           0       -0.384123    0.000009    0.000000
      2          1           0        0.040237   -0.600227   -0.918425
      3          1           0        0.040238   -0.495258    0.979029
      4          1           0        0.040267    1.095506   -0.060603
      5         17           0        2.218119   -0.000003    0.000000
      6         17           0       -2.090119   -0.000002    0.000000
 ---------------------------------------------------------------------
                    Distance matrix (angstroms):
                    1          2          3          4          5
     1  C    0.000000
     2  H    1.176380   0.000000
     3  H    1.176380   1.900355   0.000000
     4  H    1.176390   1.900360   1.900359   0.000000
     5  Cl   2.602242   2.438636   2.438635   2.438617   0.000000
     6  Cl   1.705996   2.396287   2.396288   2.396321   4.308238
                    6
     6  Cl   0.000000
 This structure is nearly, but not quite of a higher symmetry.
 Consider Symm=Loose if the higher symmetry is desired.
 Stoichiometry    CH3Cl2(1-)
 Framework group  C1[X(CH3Cl2)]
 Deg. of freedom    12
 Full point group                 C1      NOp   1
 Largest Abelian subgroup         C1      NOp   1
 Largest concise Abelian subgroup C1      NOp   1
                         Standard orientation:                         
 ---------------------------------------------------------------------
 Center     Atomic      Atomic             Coordinates (Angstroms)
 Number     Number       Type             X           Y           Z
 ---------------------------------------------------------------------
      1          6           0       -0.001023   -0.019775   -0.383426
      2          1           0        0.886336   -0.643996    0.071340
      3          1           0       -1.003168   -0.441271    0.065925
      4          1           0        0.117156    1.091539   -0.016127
      5         17           0        0.005914    0.114306    2.215350
      6         17           0       -0.005572   -0.107695   -2.087149
 ---------------------------------------------------------------------
 Rotational constants (GHZ):         138.8548693           1.5388721           1.5388720
 Leave Link  202 at Mon Nov  6 15:52:07 2017, MaxMem=   134217728 cpu:               0.0 elap:               0.0
 (Enter /n/sw/g16_nehalem/g16/l301.exe)
 Standard basis: VSTO-6G (5D, 7F)
 Ernie: Thresh=  0.10000D-02 Tol=  0.10000D-05 Strict=F.
  NNHCO=     0 NNPyr=     0 NCTC=     0               EPep=         0.000000000
    EC=        31.532935389  ECS=         0.461618525   EG=         0.116867935
   EHC=         0.000000000  EAt=       -33.052413022  AtH=         0.613817027
 EPDDG=         0.000000000  ECC=        32.111421849 EAtT=        33.666230050
 There are    15 symmetry adapted cartesian basis functions of A   symmetry.
 There are    15 symmetry adapted basis functions of A   symmetry.
    15 basis functions,    90 primitive gaussians,    15 cartesian basis functions
    11 alpha electrons       11 beta electrons
       nuclear repulsion energy        65.7776518987 Hartrees.
 IExCor=    0 DFT=F Ex=HF Corr=None ExCW=0 ScaHFX=  1.000000
 ScaDFX=  1.000000  1.000000  1.000000  1.000000 ScalE2=  1.000000  1.000000
 IRadAn=      5 IRanWt=     -1 IRanGd=            0 ICorTp=0 IEmpDi=  4
 Integral buffers will be    131072 words long.
 Regular integral format.
 Two-electron integral symmetry is turned off.
 Leave Link  301 at Mon Nov  6 15:52:07 2017, MaxMem=   134217728 cpu:               0.1 elap:               0.2
 (Enter /n/sw/g16_nehalem/g16/l302.exe)
 Do NDO integrals.
 NPDir=0 NMtPBC=     1 NCelOv=     1 NCel=       1 NClECP=     1 NCelD=      1
         NCelK=      1 NCelE2=     1 NClLst=     1 CellRange=     0.0.
 One-electron integrals computed using PRISM.
 NBasis=    15 RedAO= F EigKep=  0.00D+00  NBF=    15
 NBsUse=    15 1.00D-04 EigRej=  0.00D+00 NBFU=    15
 Leave Link  302 at Mon Nov  6 15:52:07 2017, MaxMem=   134217728 cpu:               0.2 elap:               0.2
 (Enter /n/sw/g16_nehalem/g16/l303.exe)
 DipDrv:  MaxL=1.
 Leave Link  303 at Mon Nov  6 15:52:08 2017, MaxMem=   134217728 cpu:               0.1 elap:               0.1
 (Enter /n/sw/g16_nehalem/g16/l401.exe)
 Simple Huckel Guess.
 JPrj=0 DoOrth=F DoCkMO=F.
 Leave Link  401 at Mon Nov  6 15:52:08 2017, MaxMem=   134217728 cpu:               0.1 elap:               0.2
 (Enter /n/sw/g16_nehalem/g16/l502.exe)
 Keep J ints in memory in canonical form, NReq=859725.
 FoFCou: FMM=F IPFlag=           0 FMFlag=           0 FMFlg1=           0
         NFxFlg=           0 DoJE=F BraDBF=F KetDBF=F FulRan=T
         wScrn=  0.000000 ICntrl=       600 IOpCl=  2 I1Cent=           0 NGrid=           0
         NMat0=    1 NMatS0=     33 NMatT0=    0 NMatD0=    1 NMtDS0=    0 NMtDT0=    0
 Symmetry not used in FoFCou.
 Two-electron integral symmetry not used.
 Closed shell SCF:
 Using DIIS extrapolation, IDIIS=  1040.
 Overlap will be assumed to be unity.
 NGot=   134217728 LenX=   134156826 LenY=   134155944
 Requested convergence on RMS density matrix=1.00D-08 within 128 cycles.
 Requested convergence on MAX density matrix=1.00D-06.
 Requested convergence on             energy=1.00D-06.
 No special actions if energy rises.

 Cycle   1  Pass 1  IDiag  1:
 E= 0.157766483522480    
 DIIS: error= 1.13D-01 at cycle   1 NSaved=   1.
 NSaved= 1 IEnMin= 1 EnMin= 0.157766483522480     IErMin= 1 ErrMin= 1.13D-01
 ErrMax= 1.13D-01  0.00D+00 EMaxC= 1.00D-01 BMatC= 1.13D-01 BMatP= 1.13D-01
 IDIUse=3 WtCom= 0.00D+00 WtEn= 1.00D+00
 Coeff-Com:  0.100D+01
 Coeff-En:   0.100D+01
 Coeff:      0.100D+01
 GapD=    2.000 DampG=2.000 DampE=0.250 DampFc=0.5000 IDamp=-1.
 Damping current iteration by 5.00D-01
 RMSDP=2.73D-02 MaxDP=1.42D-01              OVMax= 0.00D+00

 Cycle   2  Pass 1  IDiag  1:
 E= 0.506018777993944E-01 Delta-E=       -0.107164605723 Rises=F Damp=T
 DIIS: error= 6.80D-02 at cycle   2 NSaved=   2.
 NSaved= 2 IEnMin= 2 EnMin= 0.506018777993944E-01 IErMin= 2 ErrMin= 6.80D-02
 ErrMax= 6.80D-02  0.00D+00 EMaxC= 1.00D-01 BMatC= 4.21D-02 BMatP= 1.13D-01
 IDIUse=3 WtCom= 3.20D-01 WtEn= 6.80D-01
 Coeff-Com: -0.156D+01 0.256D+01
 Coeff-En:   0.000D+00 0.100D+01
 Coeff:     -0.501D+00 0.150D+01
 RMSDP=1.79D-02 MaxDP=9.59D-02 DE=-1.07D-01 OVMax= 0.00D+00

 Cycle   3  Pass 1  IDiag  1:
 E=-0.879683763198358E-01 Delta-E=       -0.138570254119 Rises=F Damp=F
 DIIS: error= 8.74D-03 at cycle   3 NSaved=   3.
 NSaved= 3 IEnMin= 3 EnMin=-0.879683763198358E-01 IErMin= 3 ErrMin= 8.74D-03
 ErrMax= 8.74D-03  0.00D+00 EMaxC= 1.00D-01 BMatC= 8.64D-04 BMatP= 4.21D-02
 IDIUse=3 WtCom= 9.13D-01 WtEn= 8.74D-02
 Coeff-Com:  0.620D+00-0.124D+01 0.162D+01
 Coeff-En:   0.000D+00 0.000D+00 0.100D+01
 Coeff:      0.566D+00-0.113D+01 0.157D+01
 RMSDP=2.96D-03 MaxDP=1.82D-02 DE=-1.39D-01 OVMax= 0.00D+00

 Cycle   4  Pass 1  IDiag  3:
 E=-0.897953061342349E-01 Delta-E=       -0.001826929814 Rises=F Damp=F
 DIIS: error= 3.06D-04 at cycle   4 NSaved=   4.
 NSaved= 4 IEnMin= 4 EnMin=-0.897953061342349E-01 IErMin= 4 ErrMin= 3.06D-04
 ErrMax= 3.06D-04  0.00D+00 EMaxC= 1.00D-01 BMatC= 3.31D-06 BMatP= 8.64D-04
 IDIUse=3 WtCom= 9.97D-01 WtEn= 3.06D-03
 Coeff-Com: -0.127D+00 0.266D+00-0.457D+00 0.132D+01
 Coeff-En:   0.000D+00 0.000D+00 0.000D+00 0.100D+01
 Coeff:     -0.126D+00 0.266D+00-0.455D+00 0.132D+01
 Gap=     0.353 Goal=   None    Shift=    0.000
 RMSDP=3.92D-04 MaxDP=1.40D-03 DE=-1.83D-03 OVMax= 3.05D-03

 Cycle   5  Pass 1  IDiag  3:
 E=-0.898126453725325E-01 Delta-E=       -0.000017339238 Rises=F Damp=F
 DIIS: error= 6.96D-05 at cycle   5 NSaved=   5.
 NSaved= 5 IEnMin= 5 EnMin=-0.898126453725325E-01 IErMin= 5 ErrMin= 6.96D-05
 ErrMax= 6.96D-05  0.00D+00 EMaxC= 1.00D-01 BMatC= 1.49D-07 BMatP= 3.31D-06
 IDIUse=1 WtCom= 1.00D+00 WtEn= 0.00D+00
 Coeff-Com:  0.866D-02-0.188D-01 0.404D-01-0.353D+00 0.132D+01
 Coeff:      0.866D-02-0.188D-01 0.404D-01-0.353D+00 0.132D+01
 Gap=     0.353 Goal=   None    Shift=    0.000
 RMSDP=1.17D-04 MaxDP=4.91D-04 DE=-1.73D-05 OVMax= 1.05D-03

 Cycle   6  Pass 1  IDiag  3:
 E=-0.898136992588263E-01 Delta-E=       -0.000001053886 Rises=F Damp=F
 DIIS: error= 1.40D-05 at cycle   6 NSaved=   6.
 NSaved= 6 IEnMin= 6 EnMin=-0.898136992588263E-01 IErMin= 6 ErrMin= 1.40D-05
 ErrMax= 1.40D-05  0.00D+00 EMaxC= 1.00D-01 BMatC= 4.00D-09 BMatP= 1.49D-07
 IDIUse=1 WtCom= 1.00D+00 WtEn= 0.00D+00
 Coeff-Com: -0.111D-02 0.267D-02-0.881D-02 0.144D+00-0.672D+00 0.154D+01
 Coeff:     -0.111D-02 0.267D-02-0.881D-02 0.144D+00-0.672D+00 0.154D+01
 Gap=     0.353 Goal=   None    Shift=    0.000
 RMSDP=2.10D-05 MaxDP=1.05D-04 DE=-1.05D-06 OVMax= 2.06D-04

 Cycle   7  Pass 1  IDiag  3:
 E=-0.898137276162316E-01 Delta-E=       -0.000000028357 Rises=F Damp=F
 DIIS: error= 9.25D-07 at cycle   7 NSaved=   7.
 NSaved= 7 IEnMin= 7 EnMin=-0.898137276162316E-01 IErMin= 7 ErrMin= 9.25D-07
 ErrMax= 9.25D-07  0.00D+00 EMaxC= 1.00D-01 BMatC= 4.02D-11 BMatP= 4.00D-09
 IDIUse=1 WtCom= 1.00D+00 WtEn= 0.00D+00
 Coeff-Com: -0.315D-03 0.590D-03-0.142D-03-0.257D-01 0.145D+00-0.399D+00
 Coeff-Com:  0.128D+01
 Coeff:     -0.315D-03 0.590D-03-0.142D-03-0.257D-01 0.145D+00-0.399D+00
 Coeff:      0.128D+01
 Gap=     0.353 Goal=   None    Shift=    0.000
 RMSDP=1.52D-06 MaxDP=6.65D-06 DE=-2.84D-08 OVMax= 8.91D-06

 Cycle   8  Pass 1  IDiag  3:
 E=-0.898137278283002E-01 Delta-E=       -0.000000000212 Rises=F Damp=F
 DIIS: error= 2.02D-07 at cycle   8 NSaved=   8.
 NSaved= 8 IEnMin= 8 EnMin=-0.898137278283002E-01 IErMin= 8 ErrMin= 2.02D-07
 ErrMax= 2.02D-07  0.00D+00 EMaxC= 1.00D-01 BMatC= 1.07D-12 BMatP= 4.02D-11
 IDIUse=1 WtCom= 1.00D+00 WtEn= 0.00D+00
 Coeff-Com:  0.718D-04-0.135D-03-0.222D-04 0.103D-01-0.582D-01 0.163D+00
 Coeff-Com: -0.598D+00 0.148D+01
 Coeff:      0.718D-04-0.135D-03-0.222D-04 0.103D-01-0.582D-01 0.163D+00
 Coeff:     -0.598D+00 0.148D+01
 Gap=     0.353 Goal=   None    Shift=    0.000
 RMSDP=2.69D-07 MaxDP=1.35D-06 DE=-2.12D-10 OVMax= 1.41D-06

 Cycle   9  Pass 1  IDiag  3:
 E=-0.898137278341977E-01 Delta-E=       -0.000000000006 Rises=F Damp=F
 DIIS: error= 2.68D-08 at cycle   9 NSaved=   9.
 NSaved= 9 IEnMin= 9 EnMin=-0.898137278341977E-01 IErMin= 9 ErrMin= 2.68D-08
 ErrMax= 2.68D-08  0.00D+00 EMaxC= 1.00D-01 BMatC= 1.56D-14 BMatP= 1.07D-12
 IDIUse=1 WtCom= 1.00D+00 WtEn= 0.00D+00
 Coeff-Com:  0.402D-05-0.817D-05 0.465D-04-0.258D-02 0.144D-01-0.404D-01
 Coeff-Com:  0.153D+00-0.433D+00 0.131D+01
 Coeff:      0.402D-05-0.817D-05 0.465D-04-0.258D-02 0.144D-01-0.404D-01
 Coeff:      0.153D+00-0.433D+00 0.131D+01
 Gap=     0.353 Goal=   None    Shift=    0.000
 RMSDP=2.09D-08 MaxDP=9.64D-08 DE=-5.90D-12 OVMax= 1.07D-07

 Cycle  10  Pass 1  IDiag  3:
 E=-0.898137278343398E-01 Delta-E=        0.000000000000 Rises=F Damp=F
 DIIS: error= 3.03D-09 at cycle  10 NSaved=  10.
 NSaved=10 IEnMin=10 EnMin=-0.898137278343398E-01 IErMin=10 ErrMin= 3.03D-09
 ErrMax= 3.03D-09  0.00D+00 EMaxC= 1.00D-01 BMatC= 2.89D-16 BMatP= 1.56D-14
 IDIUse=1 WtCom= 1.00D+00 WtEn= 0.00D+00
 Coeff-Com:  0.531D-06-0.885D-06-0.227D-04 0.169D-02-0.946D-02 0.266D-01
 Coeff-Com: -0.101D+00 0.281D+00-0.863D+00 0.166D+01
 Coeff:      0.531D-06-0.885D-06-0.227D-04 0.169D-02-0.946D-02 0.266D-01
 Coeff:     -0.101D+00 0.281D+00-0.863D+00 0.166D+01
 Gap=     0.353 Goal=   None    Shift=    0.000
 RMSDP=5.73D-09 MaxDP=2.77D-08 DE=-1.42D-13 OVMax= 4.27D-08

 Cycle  11  Pass 2  IDiag  1:
 SCF Done:  E(RAM1) = -0.898137278343E-01 A.U. after   11 cycles
            NFock= 10  Conv=0.57D-08     -V/T= 0.9984
 KE=-5.718277647963D+01 PE=-6.440268548011D+01 EE= 5.571799633316D+01
 Leave Link  502 at Mon Nov  6 15:52:08 2017, MaxMem=   134217728 cpu:               0.1 elap:               0.2
 (Enter /n/sw/g16_nehalem/g16/l601.exe)
 Copying SCF densities to generalized density rwf, IOpCl= 0 IROHF=0.

 **********************************************************************

            Population analysis using the SCF density.

 **********************************************************************

 Orbital symmetries:
       Occupied  (A) (A) (A) (A) (A) (A) (A) (A) (A) (A) (A)
       Virtual   (A) (A) (A) (A)
 The electronic state is 1-A.
 Alpha  occ. eigenvalues --   -1.21754  -0.95207  -0.85395  -0.39186  -0.37842
 Alpha  occ. eigenvalues --   -0.37842  -0.25511  -0.25511  -0.13397  -0.13397
 Alpha  occ. eigenvalues --   -0.12433
 Alpha virt. eigenvalues --    0.22898   0.31639   0.31639   0.33902
          Condensed to atoms (all electrons):
               1          2          3          4          5          6
     1  C    4.170994   0.000000   0.000000   0.000000   0.000000   0.000000
     2  H    0.000000   0.876386   0.000000   0.000000   0.000000   0.000000
     3  H    0.000000   0.000000   0.876386   0.000000   0.000000   0.000000
     4  H    0.000000   0.000000   0.000000   0.876380   0.000000   0.000000
     5  Cl   0.000000   0.000000   0.000000   0.000000   7.957644   0.000000
     6  Cl   0.000000   0.000000   0.000000   0.000000   0.000000   7.242211
 Mulliken charges:
               1
     1  C   -0.170994
     2  H    0.123614
     3  H    0.123614
     4  H    0.123620
     5  Cl  -0.957644
     6  Cl  -0.242211
 Sum of Mulliken charges =  -1.00000
 Mulliken charges with hydrogens summed into heavy atoms:
               1
     1  C    0.199855
     5  Cl  -0.957644
     6  Cl  -0.242211
 Charge=             -1.0000 electrons
 Dipole moment (field-independent basis, Debye):
    X=             -0.0195    Y=             -0.3777    Z=             -7.3200  Tot=              7.3298
 N-N= 6.577765189875D+01 E-N=-6.440268545843D+01  KE=-5.718277647963D+01
 Leave Link  601 at Mon Nov  6 15:52:08 2017, MaxMem=   134217728 cpu:               0.1 elap:               0.1
 (Enter /n/sw/g16_nehalem/g16/l701.exe)
 ... and contract with generalized density number  0.
 Compute integral first derivatives.
 Leave Link  701 at Mon Nov  6 15:52:09 2017, MaxMem=   134217728 cpu:               0.1 elap:               0.2
 (Enter /n/sw/g16_nehalem/g16/l702.exe)
 L702 exits ... SP integral derivatives will be done elsewhere.
 Leave Link  702 at Mon Nov  6 15:52:09 2017, MaxMem=   134217728 cpu:               0.1 elap:               0.1
 (Enter /n/sw/g16_nehalem/g16/l703.exe)
 Integral derivatives from FoFJK, PRISM(SPDF).
 Compute integral first derivatives, UseDBF=F ICtDFT=           0.
 Calling FoFJK, ICntrl=      2127 FMM=F ISym2X=0 I1Cent= 0 IOpClX= 0 NMat=1 NMatS=1 NMatT=0.
 FoFJK:  IHMeth= 8 ICntrl=    2127 DoSepK=F KAlg= 0 I1Cent=           0 FoldK=F
 IRaf=         0 NMat=       1 IRICut=       1 DoRegI=T DoRafI=F ISym2E= 0 IDoP0=3 IntGTp=3.
 FoFCou: FMM=F IPFlag=           0 FMFlag=      100000 FMFlg1=         800
         NFxFlg=           0 DoJE=F BraDBF=F KetDBF=F FulRan=T
         wScrn=  0.000000 ICntrl=      2127 IOpCl=  0 I1Cent=           0 NGrid=           0
         NMat0=    1 NMatS0=      1 NMatT0=    0 NMatD0=    1 NMtDS0=    0 NMtDT0=    0
 Symmetry not used in FoFCou.
 Leave Link  703 at Mon Nov  6 15:52:09 2017, MaxMem=   134217728 cpu:               0.1 elap:               0.1
 (Enter /n/sw/g16_nehalem/g16/l716.exe)
 Dipole        =-7.68716798D-03-1.48584012D-01-2.87991549D+00
 ***** Axes restored to original set *****
 -------------------------------------------------------------------
 Center     Atomic                   Forces (Hartrees/Bohr)
 Number     Number              X              Y              Z
 -------------------------------------------------------------------
      1        6           0.066235601    0.000001755   -0.000000032
      2        1          -0.017094813    0.017917759    0.027415692
      3        1          -0.017094959    0.014784286   -0.029224812
      4        1          -0.017099116   -0.032705161    0.001809186
      5       17           0.016904779    0.000000051   -0.000000002
      6       17          -0.031851492    0.000001310   -0.000000032
 -------------------------------------------------------------------
 Cartesian Forces:  Max     0.066235601 RMS     0.023312521
 Leave Link  716 at Mon Nov  6 15:52:09 2017, MaxMem=   134217728 cpu:               0.1 elap:               0.1
 (Enter /n/sw/g16_nehalem/g16/l103.exe)

 GradGradGradGradGradGradGradGradGradGradGradGradGradGradGradGradGradGrad
 Berny optimization.
 FormGI is forming the generalized inverse of G from B-inverse, IUseBI=4.
 Internal  Forces:  Max     0.031851492 RMS     0.011576924
 Search for a local minimum.
 Step number   1 out of a maximum of   44
 All quantities printed in internal units (Hartrees-Bohrs-Radians)
 RMS Force = .11577D-01 SwitMx=.10000D-02 MixMth= 1
 Mixed Optimization -- RFO/linear search
 Second derivative matrix not updated -- first step.
 ITU=  0
     Eigenvalues ---    0.03220   0.03481   0.03481   0.06875   0.06876
     Eigenvalues ---    0.09481   0.09481   0.11214   0.23483   0.23483
     Eigenvalues ---    0.25062   0.35178
 RFO step:  Lambda=-1.70442139D-02 EMin= 3.21969701D-02
 Linear search not attempted -- first point.
 Iteration  1 RMS(Cart)=  0.03742187 RMS(Int)=  0.00095656
 Iteration  2 RMS(Cart)=  0.00058556 RMS(Int)=  0.00037568
 Iteration  3 RMS(Cart)=  0.00000018 RMS(Int)=  0.00037568
 ITry= 1 IFail=0 DXMaxC= 1.12D-01 DCOld= 1.00D+10 DXMaxT= 3.00D-01 DXLimC= 3.00D+00 Rises=F
 Variable       Old X    -DE/DX   Delta X   Delta X   Delta X     New X
                                 (Linear)    (Quad)   (Total)
    R1        2.22304  -0.03123   0.00000  -0.11464  -0.11507   2.10797
    R2        2.22304  -0.03123   0.00000  -0.11464  -0.11507   2.10797
    R3        2.22305  -0.03123   0.00000  -0.11466  -0.11509   2.10797
    R4        3.22387   0.03185   0.00000   0.08636   0.08636   3.31022
    R5        4.60835   0.00337   0.00000   0.08593   0.08613   4.69448
    R6        4.60835   0.00337   0.00000   0.08593   0.08613   4.69448
    R7        4.60832   0.00337   0.00000   0.08594   0.08613   4.69445
    A1        1.88053   0.00139   0.00000   0.01275   0.01241   1.89294
    A2        1.88052   0.00139   0.00000   0.01275   0.01241   1.89293
    A3        1.93985  -0.00131   0.00000  -0.01202  -0.01183   1.92802
    A4        1.88052   0.00139   0.00000   0.01275   0.01241   1.89293
    A5        1.93985  -0.00131   0.00000  -0.01202  -0.01183   1.92802
    A6        1.93988  -0.00132   0.00000  -0.01205  -0.01186   1.92802
    A7        1.47319   0.00587   0.00000   0.02100   0.02063   1.49381
    A8        1.47319   0.00587   0.00000   0.02100   0.02063   1.49381
    A9        1.47320   0.00588   0.00000   0.02100   0.02063   1.49383
   A10        0.80047  -0.01207   0.00000  -0.05548  -0.05466   0.74581
   A11        0.80048  -0.01208   0.00000  -0.05548  -0.05466   0.74581
   A12        0.80048  -0.01208   0.00000  -0.05548  -0.05466   0.74581
    D1       -1.01233  -0.00153   0.00000  -0.01398  -0.01391  -1.02624
    D2        1.01231   0.00153   0.00000   0.01398   0.01391   1.02622
    D3       -3.14158   0.00000   0.00000  -0.00001  -0.00001   3.14159
    D4        1.01233   0.00153   0.00000   0.01398   0.01391   1.02624
    D5       -1.01232  -0.00153   0.00000  -0.01398  -0.01391  -1.02622
    D6        3.14158   0.00000   0.00000   0.00001   0.00001  -3.14159
    D7       -1.01233  -0.00153   0.00000  -0.01398  -0.01391  -1.02623
    D8        1.01233   0.00153   0.00000   0.01398   0.01391   1.02623
    D9       -3.14159   0.00000   0.00000   0.00000   0.00000  -3.14159
   D10        0.57390  -0.00165   0.00000  -0.00759  -0.00714   0.56676
   D11       -0.57390   0.00165   0.00000   0.00759   0.00714  -0.56676
   D12       -0.57390   0.00165   0.00000   0.00759   0.00714  -0.56676
   D13        0.57390  -0.00165   0.00000  -0.00759  -0.00714   0.56676
   D14        0.57389  -0.00165   0.00000  -0.00758  -0.00713   0.56676
   D15       -0.57389   0.00165   0.00000   0.00758   0.00713  -0.56676
         Item               Value     Threshold  Converged?
 Maximum Force            0.031851     0.000450     NO 
 RMS     Force            0.011577     0.000300     NO 
 Maximum Displacement     0.112173     0.001800     NO 
 RMS     Displacement     0.037759     0.001200     NO 
 Predicted change in Energy=-9.210027D-03
 Lowest energy point so far.  Saving SCF results.
 GradGradGradGradGradGradGradGradGradGradGradGradGradGradGradGradGradGrad

 Leave Link  103 at Mon Nov  6 15:52:09 2017, MaxMem=   134217728 cpu:               0.0 elap:               0.1
 (Enter /n/sw/g16_nehalem/g16/l202.exe)
                          Input orientation:                          
 ---------------------------------------------------------------------
 Center     Atomic      Atomic             Coordinates (Angstroms)
 Number     Number       Type             X           Y           Z
 ---------------------------------------------------------------------
      1          6           0       -0.366267    0.000004    0.000000
      2          1           0        0.023784   -0.571726   -0.874812
      3          1           0        0.023785   -0.471742    0.932538
      4          1           0        0.023801    1.043473   -0.057725
      5         17           0        2.277478    0.000004    0.000000
      6         17           0       -2.117962    0.000012    0.000000
 ---------------------------------------------------------------------
                    Distance matrix (angstroms):
                    1          2          3          4          5
     1  C    0.000000
     2  H    1.115487   0.000000
     3  H    1.115487   1.810114   0.000000
     4  H    1.115487   1.810110   1.810110   0.000000
     5  Cl   2.643745   2.484212   2.484211   2.484195   0.000000
     6  Cl   1.751695   2.383119   2.383120   2.383126   4.395440
                    6
     6  Cl   0.000000
 Stoichiometry    CH3Cl2(1-)
 Framework group  C1[X(CH3Cl2)]
 Deg. of freedom    12
 Full point group                 C1      NOp   1
 RotChk:  IX=1 Diff= 2.36D+00
 Largest Abelian subgroup         C1      NOp   1
 Largest concise Abelian subgroup C1      NOp   1
                         Standard orientation:                         
 ---------------------------------------------------------------------
 Center     Atomic      Atomic             Coordinates (Angstroms)
 Number     Number       Type             X           Y           Z
 ---------------------------------------------------------------------
      1          6           0       -0.379884    0.000000    0.000004
      2          1           0        0.010168   -0.935518    0.465812
      3          1           0        0.010168    0.871160    0.577282
      4          1           0        0.010181    0.064357   -1.043078
      5         17           0        2.263861    0.000000   -0.000001
      6         17           0       -2.131579    0.000000   -0.000001
 ---------------------------------------------------------------------
 Rotational constants (GHZ):         153.0458463           1.4799395           1.4799394
 Leave Link  202 at Mon Nov  6 15:52:09 2017, MaxMem=   134217728 cpu:               0.0 elap:               0.0
 (Enter /n/sw/g16_nehalem/g16/l301.exe)
 Standard basis: VSTO-6G (5D, 7F)
 Ernie: Thresh=  0.10000D-02 Tol=  0.10000D-05 Strict=F.
  NNHCO=     0 NNPyr=     0 NCTC=     0               EPep=         0.000000000
    EC=        31.295354519  ECS=         0.508943946   EG=         0.112816761
   EHC=         0.000000000  EAt=       -33.052413022  AtH=         0.613817027
 EPDDG=         0.000000000  ECC=        31.917115226 EAtT=        33.666230050
 There are    15 symmetry adapted cartesian basis functions of A   symmetry.
 There are    15 symmetry adapted basis functions of A   symmetry.
    15 basis functions,    90 primitive gaussians,    15 cartesian basis functions
    11 alpha electrons       11 beta electrons
       nuclear repulsion energy        65.5833452757 Hartrees.
 IExCor=    0 DFT=F Ex=HF Corr=None ExCW=0 ScaHFX=  1.000000
 ScaDFX=  1.000000  1.000000  1.000000  1.000000 ScalE2=  1.000000  1.000000
 IRadAn=      5 IRanWt=     -1 IRanGd=            0 ICorTp=0 IEmpDi=  4
 Integral buffers will be    131072 words long.
 Regular integral format.
 Two-electron integral symmetry is turned off.
 Leave Link  301 at Mon Nov  6 15:52:09 2017, MaxMem=   134217728 cpu:               0.1 elap:               0.1
 (Enter /n/sw/g16_nehalem/g16/l302.exe)
 Do NDO integrals.
 NPDir=0 NMtPBC=     1 NCelOv=     1 NCel=       1 NClECP=     1 NCelD=      1
         NCelK=      1 NCelE2=     1 NClLst=     1 CellRange=     0.0.
 One-electron integrals computed using PRISM.
 NBasis=    15 RedAO= F EigKep=  0.00D+00  NBF=    15
 NBsUse=    15 1.00D-04 EigRej=  0.00D+00 NBFU=    15
 Leave Link  302 at Mon Nov  6 15:52:10 2017, MaxMem=   134217728 cpu:               0.1 elap:               0.2
 (Enter /n/sw/g16_nehalem/g16/l303.exe)
 DipDrv:  MaxL=1.
 Leave Link  303 at Mon Nov  6 15:52:10 2017, MaxMem=   134217728 cpu:               0.1 elap:               0.1
 (Enter /n/sw/g16_nehalem/g16/l401.exe)
 Initial guess from the checkpoint file:  "/scratch/dhuang9_MeCl_precomplex/Gau-53863.chk"
 B after Tr=     0.000000    0.000000    0.000000
         Rot=    0.552615    0.442662   -0.527662    0.469297 Ang= 112.91 deg.
 Guess basis will be translated and rotated to current coordinates.
 JPrj=0 DoOrth=T DoCkMO=T.
 Leave Link  401 at Mon Nov  6 15:52:10 2017, MaxMem=   134217728 cpu:               0.2 elap:               0.2
 (Enter /n/sw/g16_nehalem/g16/l502.exe)
 Keep J ints in memory in canonical form, NReq=859725.
 FoFCou: FMM=F IPFlag=           0 FMFlag=           0 FMFlg1=           0
         NFxFlg=           0 DoJE=F BraDBF=F KetDBF=F FulRan=T
         wScrn=  0.000000 ICntrl=       600 IOpCl=  2 I1Cent=           0 NGrid=           0
         NMat0=    1 NMatS0=     33 NMatT0=    0 NMatD0=    1 NMtDS0=    0 NMtDT0=    0
 Symmetry not used in FoFCou.
 Two-electron integral symmetry not used.
 Closed shell SCF:
 Using DIIS extrapolation, IDIIS=  1040.
 Overlap will be assumed to be unity.
 NGot=   134217728 LenX=   134156826 LenY=   134155944
 Requested convergence on RMS density matrix=1.00D-08 within 128 cycles.
 Requested convergence on MAX density matrix=1.00D-06.
 Requested convergence on             energy=1.00D-06.
 No special actions if energy rises.

 Cycle   1  Pass 1  IDiag  1:
 E=-0.991213068129042E-01
 DIIS: error= 3.93D-03 at cycle   1 NSaved=   1.
 NSaved= 1 IEnMin= 1 EnMin=-0.991213068129042E-01 IErMin= 1 ErrMin= 3.93D-03
 ErrMax= 3.93D-03  0.00D+00 EMaxC= 1.00D-01 BMatC= 4.20D-04 BMatP= 4.20D-04
 IDIUse=3 WtCom= 9.61D-01 WtEn= 3.93D-02
 Coeff-Com:  0.100D+01
 Coeff-En:   0.100D+01
 Coeff:      0.100D+01
 GapD=    2.000 DampG=2.000 DampE=1.000 DampFc=2.0000 IDamp=-1.
 RMSDP=1.89D-03 MaxDP=9.49D-03              OVMax= 0.00D+00

 Cycle   2  Pass 1  IDiag  3:
 E=-0.100081633250653     Delta-E=       -0.000960326438 Rises=F Damp=F
 DIIS: error= 9.55D-04 at cycle   2 NSaved=   2.
 NSaved= 2 IEnMin= 2 EnMin=-0.100081633250653     IErMin= 2 ErrMin= 9.55D-04
 ErrMax= 9.55D-04  0.00D+00 EMaxC= 1.00D-01 BMatC= 2.33D-05 BMatP= 4.20D-04
 IDIUse=3 WtCom= 9.90D-01 WtEn= 9.55D-03
 Coeff-Com: -0.295D+00 0.130D+01
 Coeff-En:   0.000D+00 0.100D+01
 Coeff:     -0.292D+00 0.129D+01
 Gap=     0.345 Goal=   None    Shift=    0.000
 RMSDP=6.74D-04 MaxDP=2.65D-03 DE=-9.60D-04 OVMax= 3.41D-03

 Cycle   3  Pass 1  IDiag  3:
 E=-0.100149560713447     Delta-E=       -0.000067927463 Rises=F Damp=F
 DIIS: error= 6.20D-05 at cycle   3 NSaved=   3.
 NSaved= 3 IEnMin= 3 EnMin=-0.100149560713447     IErMin= 3 ErrMin= 6.20D-05
 ErrMax= 6.20D-05  0.00D+00 EMaxC= 1.00D-01 BMatC= 2.17D-07 BMatP= 2.33D-05
 IDIUse=1 WtCom= 1.00D+00 WtEn= 0.00D+00
 Coeff-Com:  0.163D+00-0.736D+00 0.157D+01
 Coeff:      0.163D+00-0.736D+00 0.157D+01
 Gap=     0.345 Goal=   None    Shift=    0.000
 RMSDP=1.28D-04 MaxDP=4.83D-04 DE=-6.79D-05 OVMax= 7.91D-04

 Cycle   4  Pass 1  IDiag  3:
 E=-0.100150841730027     Delta-E=       -0.000001281017 Rises=F Damp=F
 DIIS: error= 1.14D-05 at cycle   4 NSaved=   4.
 NSaved= 4 IEnMin= 4 EnMin=-0.100150841730027     IErMin= 4 ErrMin= 1.14D-05
 ErrMax= 1.14D-05  0.00D+00 EMaxC= 1.00D-01 BMatC= 1.85D-09 BMatP= 2.17D-07
 IDIUse=1 WtCom= 1.00D+00 WtEn= 0.00D+00
 Coeff-Com: -0.661D-01 0.301D+00-0.661D+00 0.143D+01
 Coeff:     -0.661D-01 0.301D+00-0.661D+00 0.143D+01
 Gap=     0.345 Goal=   None    Shift=    0.000
 RMSDP=1.20D-05 MaxDP=7.43D-05 DE=-1.28D-06 OVMax= 9.21D-05

 Cycle   5  Pass 1  IDiag  3:
 E=-0.100150853868883     Delta-E=       -0.000000012139 Rises=F Damp=F
 DIIS: error= 1.85D-06 at cycle   5 NSaved=   5.
 NSaved= 5 IEnMin= 5 EnMin=-0.100150853868883     IErMin= 5 ErrMin= 1.85D-06
 ErrMax= 1.85D-06  0.00D+00 EMaxC= 1.00D-01 BMatC= 6.02D-11 BMatP= 1.85D-09
 IDIUse=1 WtCom= 1.00D+00 WtEn= 0.00D+00
 Coeff-Com:  0.159D-01-0.727D-01 0.158D+00-0.449D+00 0.135D+01
 Coeff:      0.159D-01-0.727D-01 0.158D+00-0.449D+00 0.135D+01
 Gap=     0.345 Goal=   None    Shift=    0.000
 RMSDP=2.35D-06 MaxDP=1.41D-05 DE=-1.21D-08 OVMax= 2.12D-05

 Cycle   6  Pass 1  IDiag  3:
 E=-0.100150854248398     Delta-E=       -0.000000000380 Rises=F Damp=F
 DIIS: error= 1.94D-07 at cycle   6 NSaved=   6.
 NSaved= 6 IEnMin= 6 EnMin=-0.100150854248398     IErMin= 6 ErrMin= 1.94D-07
 ErrMax= 1.94D-07  0.00D+00 EMaxC= 1.00D-01 BMatC= 1.39D-12 BMatP= 6.02D-11
 IDIUse=1 WtCom= 1.00D+00 WtEn= 0.00D+00
 Coeff-Com: -0.204D-02 0.949D-02-0.199D-01 0.696D-01-0.313D+00 0.126D+01
 Coeff:     -0.204D-02 0.949D-02-0.199D-01 0.696D-01-0.313D+00 0.126D+01
 Gap=     0.345 Goal=   None    Shift=    0.000
 RMSDP=2.68D-07 MaxDP=9.51D-07 DE=-3.80D-10 OVMax= 1.74D-06

 Cycle   7  Pass 1  IDiag  3:
 E=-0.100150854256100     Delta-E=       -0.000000000008 Rises=F Damp=F
 DIIS: error= 7.80D-08 at cycle   7 NSaved=   7.
 NSaved= 7 IEnMin= 7 EnMin=-0.100150854256100     IErMin= 7 ErrMin= 7.80D-08
 ErrMax= 7.80D-08  0.00D+00 EMaxC= 1.00D-01 BMatC= 1.02D-13 BMatP= 1.39D-12
 IDIUse=1 WtCom= 1.00D+00 WtEn= 0.00D+00
 Coeff-Com:  0.208D-03-0.105D-02 0.184D-02-0.108D-01 0.833D-01-0.607D+00
 Coeff-Com:  0.153D+01
 Coeff:      0.208D-03-0.105D-02 0.184D-02-0.108D-01 0.833D-01-0.607D+00
 Coeff:      0.153D+01
 Gap=     0.345 Goal=   None    Shift=    0.000
 RMSDP=8.65D-08 MaxDP=4.12D-07 DE=-7.70D-12 OVMax= 5.38D-07

 Cycle   8  Pass 1  IDiag  3:
 E=-0.100150854256697     Delta-E=       -0.000000000001 Rises=F Damp=F
 DIIS: error= 8.31D-09 at cycle   8 NSaved=   8.
 NSaved= 8 IEnMin= 8 EnMin=-0.100150854256697     IErMin= 8 ErrMin= 8.31D-09
 ErrMax= 8.31D-09  0.00D+00 EMaxC= 1.00D-01 BMatC= 1.82D-15 BMatP= 1.02D-13
 IDIUse=1 WtCom= 1.00D+00 WtEn= 0.00D+00
 Coeff-Com: -0.363D-04 0.207D-03-0.261D-03 0.304D-02-0.301D-01 0.244D+00
 Coeff-Com: -0.682D+00 0.147D+01
 Coeff:     -0.363D-04 0.207D-03-0.261D-03 0.304D-02-0.301D-01 0.244D+00
 Coeff:     -0.682D+00 0.147D+01
 Gap=     0.345 Goal=   None    Shift=    0.000
 RMSDP=1.25D-08 MaxDP=4.79D-08 DE=-5.97D-13 OVMax= 6.84D-08

 Cycle   9  Pass 1  IDiag  3:
 E=-0.100150854256725     Delta-E=        0.000000000000 Rises=F Damp=F
 DIIS: error= 1.90D-09 at cycle   9 NSaved=   9.
 NSaved= 9 IEnMin= 9 EnMin=-0.100150854256725     IErMin= 9 ErrMin= 1.90D-09
 ErrMax= 1.90D-09  0.00D+00 EMaxC= 1.00D-01 BMatC= 1.15D-16 BMatP= 1.82D-15
 IDIUse=1 WtCom= 1.00D+00 WtEn= 0.00D+00
 Coeff-Com: -0.123D-05-0.114D-04-0.555D-04-0.784D-03 0.110D-01-0.968D-01
 Coeff-Com:  0.285D+00-0.822D+00 0.162D+01
 Coeff:     -0.123D-05-0.114D-04-0.555D-04-0.784D-03 0.110D-01-0.968D-01
 Coeff:      0.285D+00-0.822D+00 0.162D+01
 Gap=     0.345 Goal=   None    Shift=    0.000
 RMSDP=4.13D-09 MaxDP=1.46D-08 DE=-2.84D-14 OVMax= 0.00D+00

 SCF Done:  E(RAM1) = -0.100150854257     A.U. after    9 cycles
            NFock=  9  Conv=0.41D-08     -V/T= 0.9983
 KE=-5.724426725009D+01 PE=-6.384378189421D+01 EE= 5.540455301430D+01
 Leave Link  502 at Mon Nov  6 15:52:10 2017, MaxMem=   134217728 cpu:               0.1 elap:               0.1
 (Enter /n/sw/g16_nehalem/g16/l701.exe)
 ... and contract with generalized density number  0.
 Compute integral first derivatives.
 Leave Link  701 at Mon Nov  6 15:52:10 2017, MaxMem=   134217728 cpu:               0.1 elap:               0.1
 (Enter /n/sw/g16_nehalem/g16/l702.exe)
 L702 exits ... SP integral derivatives will be done elsewhere.
 Leave Link  702 at Mon Nov  6 15:52:10 2017, MaxMem=   134217728 cpu:               0.1 elap:               0.1
 (Enter /n/sw/g16_nehalem/g16/l703.exe)
 Integral derivatives from FoFJK, PRISM(SPDF).
 Compute integral first derivatives, UseDBF=F ICtDFT=           0.
 Calling FoFJK, ICntrl=      2127 FMM=F ISym2X=0 I1Cent= 0 IOpClX= 0 NMat=1 NMatS=1 NMatT=0.
 FoFJK:  IHMeth= 8 ICntrl=    2127 DoSepK=F KAlg= 0 I1Cent=           0 FoldK=F
 IRaf=         0 NMat=       1 IRICut=       1 DoRegI=T DoRafI=F ISym2E= 0 IDoP0=3 IntGTp=3.
 FoFCou: FMM=F IPFlag=           0 FMFlag=      100000 FMFlg1=         800
         NFxFlg=           0 DoJE=F BraDBF=F KetDBF=F FulRan=T
         wScrn=  0.000000 ICntrl=      2127 IOpCl=  0 I1Cent=           0 NGrid=           0
         NMat0=    1 NMatS0=      1 NMatT0=    0 NMatD0=    1 NMtDS0=    0 NMtDT0=    0
 Symmetry not used in FoFCou.
 Leave Link  703 at Mon Nov  6 15:52:10 2017, MaxMem=   134217728 cpu:               0.0 elap:               0.1
 (Enter /n/sw/g16_nehalem/g16/l716.exe)
 Dipole        =-2.92200187D+00 1.38132709D-07 1.61162877D-06
 ***** Axes restored to original set *****
 -------------------------------------------------------------------
 Center     Atomic                   Forces (Hartrees/Bohr)
 Number     Number              X              Y              Z
 -------------------------------------------------------------------
      1        6           0.020251520   -0.000000415    0.000000050
      2        1          -0.006782654   -0.000533192   -0.000815502
      3        1          -0.006782697   -0.000440034    0.000869341
      4        1          -0.006783170    0.000973334   -0.000053887
      5       17           0.012506608   -0.000000021    0.000000001
      6       17          -0.012409606    0.000000328   -0.000000003
 -------------------------------------------------------------------
 Cartesian Forces:  Max     0.020251520 RMS     0.006917801
 Leave Link  716 at Mon Nov  6 15:52:10 2017, MaxMem=   134217728 cpu:               0.1 elap:               0.1
 (Enter /n/sw/g16_nehalem/g16/l103.exe)

 GradGradGradGradGradGradGradGradGradGradGradGradGradGradGradGradGradGrad
 Berny optimization.
 Using GEDIIS/GDIIS optimizer.
 FormGI is forming the generalized inverse of G from B-inverse, IUseBI=4.
 Internal  Forces:  Max     0.012409606 RMS     0.002631566
 Search for a local minimum.
 Step number   2 out of a maximum of   44
 All quantities printed in internal units (Hartrees-Bohrs-Radians)
 RMS Force = .26316D-02 SwitMx=.10000D-02 MixMth= 1
 Mixed Optimization -- RFO/linear search
 Update second derivatives using D2CorX and points    1    2
 DE= -1.03D-02 DEPred=-9.21D-03 R= 1.12D+00
 TightC=F SS=  1.41D+00  RLast= 2.86D-01 DXNew= 5.0454D-01 8.5922D-01
 Trust test= 1.12D+00 RLast= 2.86D-01 DXMaxT set to 5.05D-01
 ITU=  1  0
 Use linear search instead of GDIIS.
     Eigenvalues ---    0.02785   0.03552   0.03552   0.06976   0.06976
     Eigenvalues ---    0.09700   0.09700   0.10768   0.23282   0.23282
     Eigenvalues ---    0.26810   0.33564
 RFO step:  Lambda=-2.19253240D-03 EMin= 2.78515306D-02
 Quartic linear search produced a step of  0.18859.
 Iteration  1 RMS(Cart)=  0.02574738 RMS(Int)=  0.00039654
 Iteration  2 RMS(Cart)=  0.00021548 RMS(Int)=  0.00030612
 Iteration  3 RMS(Cart)=  0.00000004 RMS(Int)=  0.00030612
 ITry= 1 IFail=0 DXMaxC= 1.33D-01 DCOld= 1.00D+10 DXMaxT= 5.05D-01 DXLimC= 3.00D+00 Rises=F
 Variable       Old X    -DE/DX   Delta X   Delta X   Delta X     New X
                                 (Linear)    (Quad)   (Total)
    R1        2.10797  -0.00148  -0.02170   0.00877  -0.01326   2.09471
    R2        2.10797  -0.00148  -0.02170   0.00877  -0.01326   2.09471
    R3        2.10797  -0.00148  -0.02170   0.00878  -0.01326   2.09471
    R4        3.31022   0.01241   0.01629   0.03277   0.04906   3.35928
    R5        4.69448   0.00445   0.01624   0.13264   0.14902   4.84350
    R6        4.69448   0.00445   0.01624   0.13264   0.14902   4.84350
    R7        4.69445   0.00445   0.01624   0.13264   0.14902   4.84347
    A1        1.89294   0.00094   0.00234   0.01411   0.01597   1.90891
    A2        1.89293   0.00094   0.00234   0.01411   0.01598   1.90891
    A3        1.92802  -0.00090  -0.00223  -0.01362  -0.01566   1.91236
    A4        1.89293   0.00094   0.00234   0.01411   0.01598   1.90891
    A5        1.92802  -0.00090  -0.00223  -0.01362  -0.01566   1.91236
    A6        1.92802  -0.00090  -0.00224  -0.01362  -0.01567   1.91236
    A7        1.49381  -0.00029   0.00389  -0.00481  -0.00117   1.49264
    A8        1.49381  -0.00029   0.00389  -0.00481  -0.00117   1.49264
    A9        1.49383  -0.00029   0.00389  -0.00481  -0.00117   1.49265
   A10        0.74581  -0.00103  -0.01031  -0.01487  -0.02447   0.72134
   A11        0.74581  -0.00103  -0.01031  -0.01487  -0.02447   0.72134
   A12        0.74581  -0.00103  -0.01031  -0.01487  -0.02447   0.72134
    D1       -1.02624  -0.00107  -0.00262  -0.01617  -0.01886  -1.04510
    D2        1.02622   0.00107   0.00262   0.01617   0.01886   1.04508
    D3        3.14159   0.00000   0.00000   0.00000   0.00000   3.14158
    D4        1.02624   0.00107   0.00262   0.01617   0.01886   1.04510
    D5       -1.02622  -0.00107  -0.00262  -0.01617  -0.01886  -1.04508
    D6       -3.14159   0.00000   0.00000   0.00000   0.00000  -3.14158
    D7       -1.02623  -0.00107  -0.00262  -0.01617  -0.01886  -1.04509
    D8        1.02623   0.00107   0.00262   0.01617   0.01886   1.04509
    D9       -3.14159   0.00000   0.00000   0.00000   0.00000   3.14159
   D10        0.56676  -0.00013  -0.00135  -0.00185  -0.00298   0.56378
   D11       -0.56676   0.00013   0.00135   0.00185   0.00298  -0.56378
   D12       -0.56676   0.00013   0.00135   0.00185   0.00298  -0.56378
   D13        0.56676  -0.00013  -0.00135  -0.00185  -0.00298   0.56378
   D14        0.56676  -0.00013  -0.00135  -0.00185  -0.00298   0.56378
   D15       -0.56676   0.00013   0.00135   0.00185   0.00298  -0.56378
         Item               Value     Threshold  Converged?
 Maximum Force            0.012410     0.000450     NO 
 RMS     Force            0.002632     0.000300     NO 
 Maximum Displacement     0.133236     0.001800     NO 
 RMS     Displacement     0.025812     0.001200     NO 
 Predicted change in Energy=-1.685589D-03
 Lowest energy point so far.  Saving SCF results.
 GradGradGradGradGradGradGradGradGradGradGradGradGradGradGradGradGradGrad

 Leave Link  103 at Mon Nov  6 15:52:10 2017, MaxMem=   134217728 cpu:               0.0 elap:               0.0
 (Enter /n/sw/g16_nehalem/g16/l202.exe)
                          Input orientation:                          
 ---------------------------------------------------------------------
 Center     Atomic      Atomic             Coordinates (Angstroms)
 Number     Number       Type             X           Y           Z
 ---------------------------------------------------------------------
      1          6           0       -0.363916    0.000003    0.000000
      2          1           0        0.007369   -0.571384   -0.874285
      3          1           0        0.007370   -0.471460    0.931977
      4          1           0        0.007383    1.042844   -0.057690
      5         17           0        2.347984    0.000006    0.000000
      6         17           0       -2.141571    0.000016    0.000000
 ---------------------------------------------------------------------
                    Distance matrix (angstroms):
                    1          2          3          4          5
     1  C    0.000000
     2  H    1.108472   0.000000
     3  H    1.108472   1.809024   0.000000
     4  H    1.108472   1.809022   1.809022   0.000000
     5  Cl   2.711900   2.563072   2.563071   2.563055   0.000000
     6  Cl   1.777655   2.389313   2.389313   2.389314   4.489555
                    6
     6  Cl   0.000000
 Stoichiometry    CH3Cl2(1-)
 Framework group  C1[X(CH3Cl2)]
 Deg. of freedom    12
 Full point group                 C1      NOp   1
 RotChk:  IX=1 Diff= 4.45D-02
 Largest Abelian subgroup         C1      NOp   1
 Largest concise Abelian subgroup C1      NOp   1
                         Standard orientation:                         
 ---------------------------------------------------------------------
 Center     Atomic      Atomic             Coordinates (Angstroms)
 Number     Number       Type             X           Y           Z
 ---------------------------------------------------------------------
      1          6           0       -0.395257    0.000000    0.000007
      2          1           0       -0.023970   -0.919860    0.494695
      3          1           0       -0.023970    0.888340    0.549287
      4          1           0       -0.023960    0.031518   -1.043954
      5         17           0        2.316643    0.000000   -0.000002
      6         17           0       -2.172911    0.000000   -0.000003
 ---------------------------------------------------------------------
 Rotational constants (GHZ):         153.2301200           1.4183923           1.4183923
 Leave Link  202 at Mon Nov  6 15:52:10 2017, MaxMem=   134217728 cpu:               0.0 elap:               0.0
 (Enter /n/sw/g16_nehalem/g16/l301.exe)
 Standard basis: VSTO-6G (5D, 7F)
 Ernie: Thresh=  0.10000D-02 Tol=  0.10000D-05 Strict=F.
  NNHCO=     0 NNPyr=     0 NCTC=     0               EPep=         0.000000000
    EC=        30.883931223  ECS=         0.505417073   EG=         0.108567110
   EHC=         0.000000000  EAt=       -33.052413022  AtH=         0.613817027
 EPDDG=         0.000000000  ECC=        31.497915406 EAtT=        33.666230050
 There are    15 symmetry adapted cartesian basis functions of A   symmetry.
 There are    15 symmetry adapted basis functions of A   symmetry.
    15 basis functions,    90 primitive gaussians,    15 cartesian basis functions
    11 alpha electrons       11 beta electrons
       nuclear repulsion energy        65.1641454551 Hartrees.
 IExCor=    0 DFT=F Ex=HF Corr=None ExCW=0 ScaHFX=  1.000000
 ScaDFX=  1.000000  1.000000  1.000000  1.000000 ScalE2=  1.000000  1.000000
 IRadAn=      5 IRanWt=     -1 IRanGd=            0 ICorTp=0 IEmpDi=  4
 Integral buffers will be    131072 words long.
 Regular integral format.
 Two-electron integral symmetry is turned off.
 Leave Link  301 at Mon Nov  6 15:52:11 2017, MaxMem=   134217728 cpu:               0.1 elap:               0.1
 (Enter /n/sw/g16_nehalem/g16/l302.exe)
 Do NDO integrals.
 NPDir=0 NMtPBC=     1 NCelOv=     1 NCel=       1 NClECP=     1 NCelD=      1
         NCelK=      1 NCelE2=     1 NClLst=     1 CellRange=     0.0.
 One-electron integrals computed using PRISM.
 NBasis=    15 RedAO= F EigKep=  0.00D+00  NBF=    15
 NBsUse=    15 1.00D-04 EigRej=  0.00D+00 NBFU=    15
 Leave Link  302 at Mon Nov  6 15:52:11 2017, MaxMem=   134217728 cpu:               0.2 elap:               0.2
 (Enter /n/sw/g16_nehalem/g16/l303.exe)
 DipDrv:  MaxL=1.
 Leave Link  303 at Mon Nov  6 15:52:11 2017, MaxMem=   134217728 cpu:               0.1 elap:               0.1
 (Enter /n/sw/g16_nehalem/g16/l401.exe)
 Initial guess from the checkpoint file:  "/scratch/dhuang9_MeCl_precomplex/Gau-53863.chk"
 B after Tr=     0.000000    0.000000    0.000000
         Rot=    0.999876    0.015719    0.000000    0.000000 Ang=   1.80 deg.
 Guess basis will be translated and rotated to current coordinates.
 JPrj=0 DoOrth=T DoCkMO=T.
 Leave Link  401 at Mon Nov  6 15:52:11 2017, MaxMem=   134217728 cpu:               0.2 elap:               0.2
 (Enter /n/sw/g16_nehalem/g16/l502.exe)
 Keep J ints in memory in canonical form, NReq=859725.
 FoFCou: FMM=F IPFlag=           0 FMFlag=           0 FMFlg1=           0
         NFxFlg=           0 DoJE=F BraDBF=F KetDBF=F FulRan=T
         wScrn=  0.000000 ICntrl=       600 IOpCl=  2 I1Cent=           0 NGrid=           0
         NMat0=    1 NMatS0=     33 NMatT0=    0 NMatD0=    1 NMtDS0=    0 NMtDT0=    0
 Symmetry not used in FoFCou.
 Two-electron integral symmetry not used.
 Closed shell SCF:
 Using DIIS extrapolation, IDIIS=  1040.
 Overlap will be assumed to be unity.
 NGot=   134217728 LenX=   134156826 LenY=   134155944
 Requested convergence on RMS density matrix=1.00D-08 within 128 cycles.
 Requested convergence on MAX density matrix=1.00D-06.
 Requested convergence on             energy=1.00D-06.
 No special actions if energy rises.

 Cycle   1  Pass 1  IDiag  1:
 E=-0.102101440575353    
 DIIS: error= 1.72D-03 at cycle   1 NSaved=   1.
 NSaved= 1 IEnMin= 1 EnMin=-0.102101440575353     IErMin= 1 ErrMin= 1.72D-03
 ErrMax= 1.72D-03  0.00D+00 EMaxC= 1.00D-01 BMatC= 6.74D-05 BMatP= 6.74D-05
 IDIUse=3 WtCom= 9.83D-01 WtEn= 1.72D-02
 Coeff-Com:  0.100D+01
 Coeff-En:   0.100D+01
 Coeff:      0.100D+01
 GapD=    2.000 DampG=2.000 DampE=1.000 DampFc=2.0000 IDamp=-1.
 RMSDP=1.01D-03 MaxDP=3.57D-03              OVMax= 0.00D+00

 Cycle   2  Pass 1  IDiag  3:
 E=-0.102307665965640     Delta-E=       -0.000206225390 Rises=F Damp=F
 DIIS: error= 4.65D-04 at cycle   2 NSaved=   2.
 NSaved= 2 IEnMin= 2 EnMin=-0.102307665965640     IErMin= 2 ErrMin= 4.65D-04
 ErrMax= 4.65D-04  0.00D+00 EMaxC= 1.00D-01 BMatC= 5.29D-06 BMatP= 6.74D-05
 IDIUse=3 WtCom= 9.95D-01 WtEn= 4.65D-03
 Coeff-Com: -0.361D+00 0.136D+01
 Coeff-En:   0.000D+00 0.100D+01
 Coeff:     -0.359D+00 0.136D+01
 Gap=     0.338 Goal=   None    Shift=    0.000
 RMSDP=4.55D-04 MaxDP=1.70D-03 DE=-2.06D-04 OVMax= 2.38D-03

 Cycle   3  Pass 1  IDiag  3:
 E=-0.102329748388570     Delta-E=       -0.000022082423 Rises=F Damp=F
 DIIS: error= 3.15D-05 at cycle   3 NSaved=   3.
 NSaved= 3 IEnMin= 3 EnMin=-0.102329748388570     IErMin= 3 ErrMin= 3.15D-05
 ErrMax= 3.15D-05  0.00D+00 EMaxC= 1.00D-01 BMatC= 5.64D-08 BMatP= 5.29D-06
 IDIUse=1 WtCom= 1.00D+00 WtEn= 0.00D+00
 Coeff-Com:  0.129D+00-0.528D+00 0.140D+01
 Coeff:      0.129D+00-0.528D+00 0.140D+01
 Gap=     0.337 Goal=   None    Shift=    0.000
 RMSDP=6.16D-05 MaxDP=2.26D-04 DE=-2.21D-05 OVMax= 3.15D-04

 Cycle   4  Pass 1  IDiag  3:
 E=-0.102330049275821     Delta-E=       -0.000000300887 Rises=F Damp=F
 DIIS: error= 3.35D-06 at cycle   4 NSaved=   4.
 NSaved= 4 IEnMin= 4 EnMin=-0.102330049275821     IErMin= 4 ErrMin= 3.35D-06
 ErrMax= 3.35D-06  0.00D+00 EMaxC= 1.00D-01 BMatC= 4.46D-10 BMatP= 5.64D-08
 IDIUse=1 WtCom= 1.00D+00 WtEn= 0.00D+00
 Coeff-Com: -0.436D-01 0.180D+00-0.497D+00 0.136D+01
 Coeff:     -0.436D-01 0.180D+00-0.497D+00 0.136D+01
 Gap=     0.337 Goal=   None    Shift=    0.000
 RMSDP=4.59D-06 MaxDP=1.80D-05 DE=-3.01D-07 OVMax= 2.49D-05

 Cycle   5  Pass 1  IDiag  3:
 E=-0.102330051519886     Delta-E=       -0.000000002244 Rises=F Damp=F
 DIIS: error= 8.40D-07 at cycle   5 NSaved=   5.
 NSaved= 5 IEnMin= 5 EnMin=-0.102330051519886     IErMin= 5 ErrMin= 8.40D-07
 ErrMax= 8.40D-07  0.00D+00 EMaxC= 1.00D-01 BMatC= 1.51D-11 BMatP= 4.46D-10
 IDIUse=1 WtCom= 1.00D+00 WtEn= 0.00D+00
 Coeff-Com:  0.150D-01-0.622D-01 0.171D+00-0.572D+00 0.145D+01
 Coeff:      0.150D-01-0.622D-01 0.171D+00-0.572D+00 0.145D+01
 Gap=     0.337 Goal=   None    Shift=    0.000
 RMSDP=1.00D-06 MaxDP=4.72D-06 DE=-2.24D-09 OVMax= 4.48D-06

 Cycle   6  Pass 1  IDiag  3:
 E=-0.102330051603232     Delta-E=       -0.000000000083 Rises=F Damp=F
 DIIS: error= 1.13D-07 at cycle   6 NSaved=   6.
 NSaved= 6 IEnMin= 6 EnMin=-0.102330051603232     IErMin= 6 ErrMin= 1.13D-07
 ErrMax= 1.13D-07  0.00D+00 EMaxC= 1.00D-01 BMatC= 2.84D-13 BMatP= 1.51D-11
 IDIUse=1 WtCom= 1.00D+00 WtEn= 0.00D+00
 Coeff-Com: -0.386D-02 0.161D-01-0.439D-01 0.150D+00-0.440D+00 0.132D+01
 Coeff:     -0.386D-02 0.161D-01-0.439D-01 0.150D+00-0.440D+00 0.132D+01
 Gap=     0.337 Goal=   None    Shift=    0.000
 RMSDP=1.17D-07 MaxDP=7.04D-07 DE=-8.33D-11 OVMax= 6.17D-07

 Cycle   7  Pass 1  IDiag  3:
 E=-0.102330051604923     Delta-E=       -0.000000000002 Rises=F Damp=F
 DIIS: error= 2.14D-08 at cycle   7 NSaved=   7.
 NSaved= 7 IEnMin= 7 EnMin=-0.102330051604923     IErMin= 7 ErrMin= 2.14D-08
 ErrMax= 2.14D-08  0.00D+00 EMaxC= 1.00D-01 BMatC= 1.97D-14 BMatP= 2.84D-13
 IDIUse=1 WtCom= 1.00D+00 WtEn= 0.00D+00
 Coeff-Com:  0.689D-03-0.288D-02 0.769D-02-0.264D-01 0.889D-01-0.532D+00
 Coeff-Com:  0.146D+01
 Coeff:      0.689D-03-0.288D-02 0.769D-02-0.264D-01 0.889D-01-0.532D+00
 Coeff:      0.146D+01
 Gap=     0.337 Goal=   None    Shift=    0.000
 RMSDP=4.44D-08 MaxDP=1.77D-07 DE=-1.69D-12 OVMax= 2.45D-07

 Cycle   8  Pass 1  IDiag  3:
 E=-0.102330051605023     Delta-E=        0.000000000000 Rises=F Damp=F
 DIIS: error= 4.25D-09 at cycle   8 NSaved=   8.
 NSaved= 8 IEnMin= 8 EnMin=-0.102330051605023     IErMin= 8 ErrMin= 4.25D-09
 ErrMax= 4.25D-09  0.00D+00 EMaxC= 1.00D-01 BMatC= 3.95D-16 BMatP= 1.97D-14
 IDIUse=1 WtCom= 1.00D+00 WtEn= 0.00D+00
 Coeff-Com: -0.112D-03 0.475D-03-0.119D-02 0.411D-02-0.173D-01 0.159D+00
 Coeff-Com: -0.553D+00 0.141D+01
 Coeff:     -0.112D-03 0.475D-03-0.119D-02 0.411D-02-0.173D-01 0.159D+00
 Coeff:     -0.553D+00 0.141D+01
 Gap=     0.337 Goal=   None    Shift=    0.000
 RMSDP=6.36D-09 MaxDP=3.54D-08 DE=-9.95D-14 OVMax= 3.94D-08

 Cycle   9  Pass 2  IDiag  1:
 SCF Done:  E(RAM1) = -0.102330051605     A.U. after    9 cycles
            NFock=  8  Conv=0.64D-08     -V/T= 0.9982
 KE=-5.725623055176D+01 PE=-6.296290170376D+01 EE= 5.495265674879D+01
 Leave Link  502 at Mon Nov  6 15:52:11 2017, MaxMem=   134217728 cpu:               0.1 elap:               0.1
 (Enter /n/sw/g16_nehalem/g16/l701.exe)
 ... and contract with generalized density number  0.
 Compute integral first derivatives.
 Leave Link  701 at Mon Nov  6 15:52:11 2017, MaxMem=   134217728 cpu:               0.1 elap:               0.1
 (Enter /n/sw/g16_nehalem/g16/l702.exe)
 L702 exits ... SP integral derivatives will be done elsewhere.
 Leave Link  702 at Mon Nov  6 15:52:11 2017, MaxMem=   134217728 cpu:               0.1 elap:               0.1
 (Enter /n/sw/g16_nehalem/g16/l703.exe)
 Integral derivatives from FoFJK, PRISM(SPDF).
 Compute integral first derivatives, UseDBF=F ICtDFT=           0.
 Calling FoFJK, ICntrl=      2127 FMM=F ISym2X=0 I1Cent= 0 IOpClX= 0 NMat=1 NMatS=1 NMatT=0.
 FoFJK:  IHMeth= 8 ICntrl=    2127 DoSepK=F KAlg= 0 I1Cent=           0 FoldK=F
 IRaf=         0 NMat=       1 IRICut=       1 DoRegI=T DoRafI=F ISym2E= 0 IDoP0=3 IntGTp=3.
 FoFCou: FMM=F IPFlag=           0 FMFlag=      100000 FMFlg1=         800
         NFxFlg=           0 DoJE=F BraDBF=F KetDBF=F FulRan=T
         wScrn=  0.000000 ICntrl=      2127 IOpCl=  0 I1Cent=           0 NGrid=           0
         NMat0=    1 NMatS0=      1 NMatT0=    0 NMatD0=    1 NMtDS0=    0 NMtDT0=    0
 Symmetry not used in FoFCou.
 Leave Link  703 at Mon Nov  6 15:52:11 2017, MaxMem=   134217728 cpu:               0.1 elap:               0.1
 (Enter /n/sw/g16_nehalem/g16/l716.exe)
 Dipole        =-3.02578451D+00-2.53778738D-07 6.32491005D-06
 ***** Axes restored to original set *****
 -------------------------------------------------------------------
 Center     Atomic                   Forces (Hartrees/Bohr)
 Number     Number              X              Y              Z
 -------------------------------------------------------------------
      1        6           0.007392460   -0.000000286    0.000000031
      2        1          -0.004391683   -0.002107733   -0.003224933
      3        1          -0.004391693   -0.001739158    0.003437741
      4        1          -0.004391663    0.003847204   -0.000212839
      5       17           0.007244029   -0.000000034    0.000000001
      6       17          -0.001461450    0.000000007    0.000000001
 -------------------------------------------------------------------
 Cartesian Forces:  Max     0.007392460 RMS     0.003429063
 Leave Link  716 at Mon Nov  6 15:52:11 2017, MaxMem=   134217728 cpu:               0.1 elap:               0.1
 (Enter /n/sw/g16_nehalem/g16/l103.exe)

 GradGradGradGradGradGradGradGradGradGradGradGradGradGradGradGradGradGrad
 Berny optimization.
 Using GEDIIS/GDIIS optimizer.
 FormGI is forming the generalized inverse of G from B-inverse, IUseBI=4.
 Internal  Forces:  Max     0.002806168 RMS     0.001204402
 Search for a local minimum.
 Step number   3 out of a maximum of   44
 All quantities printed in internal units (Hartrees-Bohrs-Radians)
 RMS Force = .12044D-02 SwitMx=.10000D-02 MixMth= 1
 Mixed Optimization -- RFO/linear search
 Update second derivatives using D2CorX and points    1    2    3
 DE= -2.18D-03 DEPred=-1.69D-03 R= 1.29D+00
 TightC=F SS=  1.41D+00  RLast= 2.74D-01 DXNew= 8.4853D-01 8.2185D-01
 Trust test= 1.29D+00 RLast= 2.74D-01 DXMaxT set to 8.22D-01
 ITU=  1  1  0
 Use linear search instead of GDIIS.
     Eigenvalues ---    0.01472   0.03596   0.03596   0.07099   0.07099
     Eigenvalues ---    0.09758   0.09758   0.10078   0.23287   0.23288
     Eigenvalues ---    0.32097   0.36729
 RFO step:  Lambda=-8.49350580D-04 EMin= 1.47152169D-02
 Quartic linear search produced a step of  1.11954.
 Iteration  1 RMS(Cart)=  0.03225602 RMS(Int)=  0.00840658
 Iteration  2 RMS(Cart)=  0.00469481 RMS(Int)=  0.00078233
 Iteration  3 RMS(Cart)=  0.00000205 RMS(Int)=  0.00078232
 Iteration  4 RMS(Cart)=  0.00000000 RMS(Int)=  0.00078232
 ITry= 1 IFail=0 DXMaxC= 1.88D-01 DCOld= 1.00D+10 DXMaxT= 8.22D-01 DXLimC= 3.00D+00 Rises=F
 Variable       Old X    -DE/DX   Delta X   Delta X   Delta X     New X
                                 (Linear)    (Quad)   (Total)
    R1        2.09471   0.00158  -0.01484   0.01012  -0.00532   2.08939
    R2        2.09471   0.00158  -0.01484   0.01012  -0.00532   2.08939
    R3        2.09471   0.00158  -0.01484   0.01012  -0.00532   2.08939
    R4        3.35928   0.00146   0.05492  -0.01980   0.03512   3.39440
    R5        4.84350   0.00281   0.16684   0.06150   0.22858   5.07209
    R6        4.84350   0.00281   0.16684   0.06150   0.22858   5.07208
    R7        4.84347   0.00281   0.16684   0.06150   0.22858   5.07206
    A1        1.90891   0.00090   0.01788   0.01246   0.02857   1.93748
    A2        1.90891   0.00090   0.01789   0.01246   0.02858   1.93748
    A3        1.91236  -0.00089  -0.01753  -0.01241  -0.02940   1.88295
    A4        1.90891   0.00090   0.01789   0.01246   0.02858   1.93748
    A5        1.91236  -0.00089  -0.01753  -0.01241  -0.02940   1.88295
    A6        1.91236  -0.00089  -0.01754  -0.01241  -0.02941   1.88295
    A7        1.49264  -0.00111  -0.00131  -0.01087  -0.01253   1.48011
    A8        1.49264  -0.00111  -0.00131  -0.01087  -0.01253   1.48011
    A9        1.49265  -0.00111  -0.00131  -0.01087  -0.01253   1.48012
   A10        0.72134   0.00037  -0.02740  -0.00260  -0.02855   0.69279
   A11        0.72134   0.00037  -0.02740  -0.00260  -0.02855   0.69279
   A12        0.72134   0.00037  -0.02740  -0.00260  -0.02855   0.69279
    D1       -1.04510  -0.00109  -0.02112  -0.01516  -0.03684  -1.08194
    D2        1.04508   0.00109   0.02111   0.01516   0.03684   1.08192
    D3        3.14158   0.00000   0.00000   0.00000   0.00000   3.14158
    D4        1.04510   0.00109   0.02112   0.01516   0.03684   1.08194
    D5       -1.04508  -0.00109  -0.02111  -0.01516  -0.03684  -1.08192
    D6       -3.14158   0.00000   0.00000   0.00000   0.00000  -3.14158
    D7       -1.04509  -0.00109  -0.02111  -0.01516  -0.03684  -1.08193
    D8        1.04509   0.00109   0.02111   0.01516   0.03684   1.08193
    D9        3.14159   0.00000   0.00000   0.00000   0.00000   3.14159
   D10        0.56378   0.00004  -0.00334  -0.00031  -0.00332   0.56046
   D11       -0.56378  -0.00004   0.00334   0.00031   0.00332  -0.56046
   D12       -0.56378  -0.00004   0.00334   0.00031   0.00332  -0.56046
   D13        0.56378   0.00004  -0.00334  -0.00031  -0.00332   0.56046
   D14        0.56378   0.00004  -0.00334  -0.00031  -0.00332   0.56046
   D15       -0.56378  -0.00004   0.00334   0.00031   0.00332  -0.56046
         Item               Value     Threshold  Converged?
 Maximum Force            0.002806     0.000450     NO 
 RMS     Force            0.001204     0.000300     NO 
 Maximum Displacement     0.188324     0.001800     NO 
 RMS     Displacement     0.036776     0.001200     NO 
 Predicted change in Energy=-1.036723D-03
 Lowest energy point so far.  Saving SCF results.
 GradGradGradGradGradGradGradGradGradGradGradGradGradGradGradGradGradGrad

 Leave Link  103 at Mon Nov  6 15:52:11 2017, MaxMem=   134217728 cpu:               0.0 elap:               0.0
 (Enter /n/sw/g16_nehalem/g16/l202.exe)
                          Input orientation:                          
 ---------------------------------------------------------------------
 Center     Atomic      Atomic             Coordinates (Angstroms)
 Number     Number       Type             X           Y           Z
 ---------------------------------------------------------------------
      1          6           0       -0.361093    0.000002    0.000000
      2          1           0       -0.021537   -0.575645   -0.880802
      3          1           0       -0.021537   -0.474977    0.938924
      4          1           0       -0.021525    1.050619   -0.058121
      5         17           0        2.447641    0.000007    0.000000
      6         17           0       -2.157330    0.000019    0.000000
 ---------------------------------------------------------------------
                    Distance matrix (angstroms):
                    1          2          3          4          5
     1  C    0.000000
     2  H    1.105658   0.000000
     3  H    1.105658   1.822508   0.000000
     4  H    1.105658   1.822509   1.822509   0.000000
     5  Cl   2.808734   2.684032   2.684032   2.684016   0.000000
     6  Cl   1.796237   2.380927   2.380926   2.380924   4.604971
                    6
     6  Cl   0.000000
 This structure is nearly, but not quite of a higher symmetry.
 Consider Symm=Loose if the higher symmetry is desired.
 Stoichiometry    CH3Cl2(1-)
 Framework group  C1[X(CH3Cl2)]
 Deg. of freedom    12
 Full point group                 C1      NOp   1
 RotChk:  IX=1 Diff= 2.28D+00
 Largest Abelian subgroup         C1      NOp   1
 Largest concise Abelian subgroup C1      NOp   1
                         Standard orientation:                         
 ---------------------------------------------------------------------
 Center     Atomic      Atomic             Coordinates (Angstroms)
 Number     Number       Type             X           Y           Z
 ---------------------------------------------------------------------
      1          6           0       -0.020534   -0.089916    0.413826
      2          1           0        0.979698    0.333763    0.207639
      3          1           0       -0.816232    0.643106    0.185737
      4          1           0       -0.175726   -1.030551   -0.146175
      5         17           0        0.115507    0.505797   -2.327634
      6         17           0       -0.107539   -0.470904    2.167036
 ---------------------------------------------------------------------
 Rotational constants (GHZ):         150.9707392           1.3473388           1.3473388
 Leave Link  202 at Mon Nov  6 15:52:11 2017, MaxMem=   134217728 cpu:               0.0 elap:               0.0
 (Enter /n/sw/g16_nehalem/g16/l301.exe)
 Standard basis: VSTO-6G (5D, 7F)
 Ernie: Thresh=  0.10000D-02 Tol=  0.10000D-05 Strict=F.
  NNHCO=     0 NNPyr=     0 NCTC=     0               EPep=         0.000000000
    EC=        30.397473365  ECS=         0.499703532   EG=         0.105165914
   EHC=         0.000000000  EAt=       -33.052413022  AtH=         0.613817027
 EPDDG=         0.000000000  ECC=        31.002342812 EAtT=        33.666230050
 There are    15 symmetry adapted cartesian basis functions of A   symmetry.
 There are    15 symmetry adapted basis functions of A   symmetry.
    15 basis functions,    90 primitive gaussians,    15 cartesian basis functions
    11 alpha electrons       11 beta electrons
       nuclear repulsion energy        64.6685728612 Hartrees.
 IExCor=    0 DFT=F Ex=HF Corr=None ExCW=0 ScaHFX=  1.000000
 ScaDFX=  1.000000  1.000000  1.000000  1.000000 ScalE2=  1.000000  1.000000
 IRadAn=      5 IRanWt=     -1 IRanGd=            0 ICorTp=0 IEmpDi=  4
 Integral buffers will be    131072 words long.
 Regular integral format.
 Two-electron integral symmetry is turned off.
 Leave Link  301 at Mon Nov  6 15:52:12 2017, MaxMem=   134217728 cpu:               0.1 elap:               0.1
 (Enter /n/sw/g16_nehalem/g16/l302.exe)
 Do NDO integrals.
 NPDir=0 NMtPBC=     1 NCelOv=     1 NCel=       1 NClECP=     1 NCelD=      1
         NCelK=      1 NCelE2=     1 NClLst=     1 CellRange=     0.0.
 One-electron integrals computed using PRISM.
 NBasis=    15 RedAO= F EigKep=  0.00D+00  NBF=    15
 NBsUse=    15 1.00D-04 EigRej=  0.00D+00 NBFU=    15
 Leave Link  302 at Mon Nov  6 15:52:12 2017, MaxMem=   134217728 cpu:               0.1 elap:               0.2
 (Enter /n/sw/g16_nehalem/g16/l303.exe)
 DipDrv:  MaxL=1.
 Leave Link  303 at Mon Nov  6 15:52:12 2017, MaxMem=   134217728 cpu:               0.1 elap:               0.1
 (Enter /n/sw/g16_nehalem/g16/l401.exe)
 Initial guess from the checkpoint file:  "/scratch/dhuang9_MeCl_precomplex/Gau-53863.chk"
 B after Tr=     0.000000    0.000000    0.000000
         Rot=    0.592835    0.415649   -0.467818   -0.506881 Ang= 107.28 deg.
 Guess basis will be translated and rotated to current coordinates.
 JPrj=0 DoOrth=T DoCkMO=T.
 Leave Link  401 at Mon Nov  6 15:52:12 2017, MaxMem=   134217728 cpu:               0.2 elap:               0.2
 (Enter /n/sw/g16_nehalem/g16/l502.exe)
 Keep J ints in memory in canonical form, NReq=859725.
 FoFCou: FMM=F IPFlag=           0 FMFlag=           0 FMFlg1=           0
         NFxFlg=           0 DoJE=F BraDBF=F KetDBF=F FulRan=T
         wScrn=  0.000000 ICntrl=       600 IOpCl=  2 I1Cent=           0 NGrid=           0
         NMat0=    1 NMatS0=     33 NMatT0=    0 NMatD0=    1 NMtDS0=    0 NMtDT0=    0
 Symmetry not used in FoFCou.
 Two-electron integral symmetry not used.
 Closed shell SCF:
 Using DIIS extrapolation, IDIIS=  1040.
 Overlap will be assumed to be unity.
 NGot=   134217728 LenX=   134156826 LenY=   134155944
 Requested convergence on RMS density matrix=1.00D-08 within 128 cycles.
 Requested convergence on MAX density matrix=1.00D-06.
 Requested convergence on             energy=1.00D-06.
 No special actions if energy rises.

 Cycle   1  Pass 1  IDiag  1:
 E=-0.103351494069727    
 DIIS: error= 1.94D-03 at cycle   1 NSaved=   1.
 NSaved= 1 IEnMin= 1 EnMin=-0.103351494069727     IErMin= 1 ErrMin= 1.94D-03
 ErrMax= 1.94D-03  0.00D+00 EMaxC= 1.00D-01 BMatC= 8.14D-05 BMatP= 8.14D-05
 IDIUse=3 WtCom= 9.81D-01 WtEn= 1.94D-02
 Coeff-Com:  0.100D+01
 Coeff-En:   0.100D+01
 Coeff:      0.100D+01
 GapD=    2.000 DampG=2.000 DampE=1.000 DampFc=2.0000 IDamp=-1.
 RMSDP=1.34D-03 MaxDP=5.28D-03              OVMax= 0.00D+00

 Cycle   2  Pass 1  IDiag  3:
 E=-0.103658740995968     Delta-E=       -0.000307246926 Rises=F Damp=F
 DIIS: error= 5.74D-04 at cycle   2 NSaved=   2.
 NSaved= 2 IEnMin= 2 EnMin=-0.103658740995968     IErMin= 2 ErrMin= 5.74D-04
 ErrMax= 5.74D-04  0.00D+00 EMaxC= 1.00D-01 BMatC= 7.86D-06 BMatP= 8.14D-05
 IDIUse=3 WtCom= 9.94D-01 WtEn= 5.74D-03
 Coeff-Com: -0.424D+00 0.142D+01
 Coeff-En:   0.000D+00 0.100D+01
 Coeff:     -0.422D+00 0.142D+01
 Gap=     0.329 Goal=   None    Shift=    0.000
 RMSDP=6.66D-04 MaxDP=2.71D-03 DE=-3.07D-04 OVMax= 4.44D-03

 Cycle   3  Pass 1  IDiag  3:
 E=-0.103697654406290     Delta-E=       -0.000038913410 Rises=F Damp=F
 DIIS: error= 3.68D-05 at cycle   3 NSaved=   3.
 NSaved= 3 IEnMin= 3 EnMin=-0.103697654406290     IErMin= 3 ErrMin= 3.68D-05
 ErrMax= 3.68D-05  0.00D+00 EMaxC= 1.00D-01 BMatC= 5.88D-08 BMatP= 7.86D-06
 IDIUse=1 WtCom= 1.00D+00 WtEn= 0.00D+00
 Coeff-Com:  0.130D+00-0.475D+00 0.134D+01
 Coeff:      0.130D+00-0.475D+00 0.134D+01
 Gap=     0.329 Goal=   None    Shift=    0.000
 RMSDP=6.76D-05 MaxDP=2.88D-04 DE=-3.89D-05 OVMax= 4.78D-04

 Cycle   4  Pass 1  IDiag  3:
 E=-0.103697988671300     Delta-E=       -0.000000334265 Rises=F Damp=F
 DIIS: error= 4.98D-06 at cycle   4 NSaved=   4.
 NSaved= 4 IEnMin= 4 EnMin=-0.103697988671300     IErMin= 4 ErrMin= 4.98D-06
 ErrMax= 4.98D-06  0.00D+00 EMaxC= 1.00D-01 BMatC= 8.05D-10 BMatP= 5.88D-08
 IDIUse=1 WtCom= 1.00D+00 WtEn= 0.00D+00
 Coeff-Com: -0.450D-01 0.167D+00-0.502D+00 0.138D+01
 Coeff:     -0.450D-01 0.167D+00-0.502D+00 0.138D+01
 Gap=     0.329 Goal=   None    Shift=    0.000
 RMSDP=6.42D-06 MaxDP=2.51D-05 DE=-3.34D-07 OVMax= 3.46D-05

 Cycle   5  Pass 1  IDiag  3:
 E=-0.103697992865449     Delta-E=       -0.000000004194 Rises=F Damp=F
 DIIS: error= 1.32D-06 at cycle   5 NSaved=   5.
 NSaved= 5 IEnMin= 5 EnMin=-0.103697992865449     IErMin= 5 ErrMin= 1.32D-06
 ErrMax= 1.32D-06  0.00D+00 EMaxC= 1.00D-01 BMatC= 3.21D-11 BMatP= 8.05D-10
 IDIUse=1 WtCom= 1.00D+00 WtEn= 0.00D+00
 Coeff-Com:  0.162D-01-0.604D-01 0.182D+00-0.614D+00 0.148D+01
 Coeff:      0.162D-01-0.604D-01 0.182D+00-0.614D+00 0.148D+01
 Gap=     0.329 Goal=   None    Shift=    0.000
 RMSDP=1.60D-06 MaxDP=8.21D-06 DE=-4.19D-09 OVMax= 9.95D-06

 Cycle   6  Pass 1  IDiag  3:
 E=-0.103697993062838     Delta-E=       -0.000000000197 Rises=F Damp=F
 DIIS: error= 2.21D-07 at cycle   6 NSaved=   6.
 NSaved= 6 IEnMin= 6 EnMin=-0.103697993062838     IErMin= 6 ErrMin= 2.21D-07
 ErrMax= 2.21D-07  0.00D+00 EMaxC= 1.00D-01 BMatC= 1.16D-12 BMatP= 3.21D-11
 IDIUse=1 WtCom= 1.00D+00 WtEn= 0.00D+00
 Coeff-Com: -0.414D-02 0.156D-01-0.461D-01 0.171D+00-0.532D+00 0.140D+01
 Coeff:     -0.414D-02 0.156D-01-0.461D-01 0.171D+00-0.532D+00 0.140D+01
 Gap=     0.329 Goal=   None    Shift=    0.000
 RMSDP=2.74D-07 MaxDP=1.55D-06 DE=-1.97D-10 OVMax= 1.34D-06

 Cycle   7  Pass 1  IDiag  3:
 E=-0.103697993070028     Delta-E=       -0.000000000007 Rises=F Damp=F
 DIIS: error= 3.04D-08 at cycle   7 NSaved=   7.
 NSaved= 7 IEnMin= 7 EnMin=-0.103697993070028     IErMin= 7 ErrMin= 3.04D-08
 ErrMax= 3.04D-08  0.00D+00 EMaxC= 1.00D-01 BMatC= 4.64D-14 BMatP= 1.16D-12
 IDIUse=1 WtCom= 1.00D+00 WtEn= 0.00D+00
 Coeff-Com:  0.318D-03-0.123D-02 0.330D-02-0.152D-01 0.692D-01-0.391D+00
 Coeff-Com:  0.133D+01
 Coeff:      0.318D-03-0.123D-02 0.330D-02-0.152D-01 0.692D-01-0.391D+00
 Coeff:      0.133D+01
 Gap=     0.329 Goal=   None    Shift=    0.000
 RMSDP=6.41D-08 MaxDP=2.46D-07 DE=-7.19D-12 OVMax= 3.45D-07

 Cycle   8  Pass 1  IDiag  3:
 E=-0.103697993070298     Delta-E=        0.000000000000 Rises=F Damp=F
 DIIS: error= 3.72D-09 at cycle   8 NSaved=   8.
 NSaved= 8 IEnMin= 8 EnMin=-0.103697993070298     IErMin= 8 ErrMin= 3.72D-09
 ErrMax= 3.72D-09  0.00D+00 EMaxC= 1.00D-01 BMatC= 5.90D-16 BMatP= 4.64D-14
 IDIUse=1 WtCom= 1.00D+00 WtEn= 0.00D+00
 Coeff-Com: -0.654D-04 0.264D-03-0.616D-03 0.366D-02-0.210D-01 0.143D+00
 Coeff-Com: -0.559D+00 0.143D+01
 Coeff:     -0.654D-04 0.264D-03-0.616D-03 0.366D-02-0.210D-01 0.143D+00
 Coeff:     -0.559D+00 0.143D+01
 Gap=     0.329 Goal=   None    Shift=    0.000
 RMSDP=7.13D-09 MaxDP=2.48D-08 DE=-2.70D-13 OVMax= 0.00D+00

 SCF Done:  E(RAM1) = -0.103697993070     A.U. after    8 cycles
            NFock=  8  Conv=0.71D-08     -V/T= 0.9982
 KE=-5.726564356216D+01 PE=-6.191979851212D+01 EE= 5.441317122002D+01
 Leave Link  502 at Mon Nov  6 15:52:12 2017, MaxMem=   134217728 cpu:               0.1 elap:               0.1
 (Enter /n/sw/g16_nehalem/g16/l701.exe)
 ... and contract with generalized density number  0.
 Compute integral first derivatives.
 Leave Link  701 at Mon Nov  6 15:52:12 2017, MaxMem=   134217728 cpu:               0.1 elap:               0.1
 (Enter /n/sw/g16_nehalem/g16/l702.exe)
 L702 exits ... SP integral derivatives will be done elsewhere.
 Leave Link  702 at Mon Nov  6 15:52:12 2017, MaxMem=   134217728 cpu:               0.1 elap:               0.1
 (Enter /n/sw/g16_nehalem/g16/l703.exe)
 Integral derivatives from FoFJK, PRISM(SPDF).
 Compute integral first derivatives, UseDBF=F ICtDFT=           0.
 Calling FoFJK, ICntrl=      2127 FMM=F ISym2X=0 I1Cent= 0 IOpClX= 0 NMat=1 NMatS=1 NMatT=0.
 FoFJK:  IHMeth= 8 ICntrl=    2127 DoSepK=F KAlg= 0 I1Cent=           0 FoldK=F
 IRaf=         0 NMat=       1 IRICut=       1 DoRegI=T DoRafI=F ISym2E= 0 IDoP0=3 IntGTp=3.
 FoFCou: FMM=F IPFlag=           0 FMFlag=      100000 FMFlg1=         800
         NFxFlg=           0 DoJE=F BraDBF=F KetDBF=F FulRan=T
         wScrn=  0.000000 ICntrl=      2127 IOpCl=  0 I1Cent=           0 NGrid=           0
         NMat0=    1 NMatS0=      1 NMatT0=    0 NMatD0=    1 NMtDS0=    0 NMtDT0=    0
 Symmetry not used in FoFCou.
 Leave Link  703 at Mon Nov  6 15:52:12 2017, MaxMem=   134217728 cpu:               0.1 elap:               0.1
 (Enter /n/sw/g16_nehalem/g16/l716.exe)
 Dipole        =-1.54654934D-01-6.77222318D-01 3.11654848D+00
 ***** Axes restored to original set *****
 -------------------------------------------------------------------
 Center     Atomic                   Forces (Hartrees/Bohr)
 Number     Number              X              Y              Z
 -------------------------------------------------------------------
      1        6          -0.003184504    0.000000025   -0.000000017
      2        1          -0.000875432   -0.001633011   -0.002498784
      3        1          -0.000875414   -0.001347405    0.002663669
      4        1          -0.000875172    0.002980633   -0.000164873
      5       17           0.001778386   -0.000000041    0.000000001
[...]
     19 -0.755186D-02  0.739626D-02  0.739632D-02  0.153376D-01
     20  0.390756D-02  0.335135D-02 -0.729480D-03 -0.144940D-03  0.703324D-02
     21 -0.134011D-02  0.729545D-03 -0.335127D-02  0.145027D-03 -0.250086D-02
     22  0.160122D-02 -0.902931D-03  0.902959D-03  0.000000D+00 -0.312928D-02
     23 -0.390756D-02 -0.335136D-02  0.144939D-03  0.729480D-03 -0.642978D-02
     24  0.134011D-02 -0.729546D-03 -0.145029D-03  0.335127D-02  0.183338D-02
     25 -0.160122D-02  0.902931D-03  0.000000D+00 -0.902958D-03  0.186739D-02
     26  0.154662D-02 -0.145007D-03  0.335137D-02 -0.729517D-03  0.183336D-02
     27 -0.154662D-02  0.145008D-03  0.729518D-03 -0.335136D-02 -0.176932D-02
     28  0.000000D+00  0.000000D+00 -0.902930D-03  0.902932D-03  0.126190D-02
     29 -0.179146D-02 -0.712131D-03 -0.379860D-02  0.784285D-02 -0.263966D-02
     30  0.513932D-02  0.379859D-02  0.712085D-03 -0.784281D-02 -0.353892D-03
     31  0.179146D-02  0.712132D-03 -0.784285D-02  0.379860D-02  0.444395D-02
     32 -0.513932D-02 -0.379859D-02  0.784281D-02 -0.712085D-03  0.671574D-03
     33  0.517691D-02  0.784283D-02 -0.712129D-03 -0.379862D-02  0.224202D-02
     34 -0.517691D-02 -0.784283D-02  0.379862D-02  0.712128D-03 -0.436398D-02
               21            22            23            24            25 
     21  0.703317D-02
     22 -0.312930D-02  0.222517D-01
     23  0.183338D-02  0.186739D-02  0.703324D-02
     24 -0.176932D-02  0.126187D-02 -0.250085D-02  0.703317D-02
     25  0.126187D-02 -0.111259D-01 -0.312929D-02 -0.312930D-02  0.222517D-01
     26 -0.642979D-02  0.186742D-02 -0.176932D-02  0.183333D-02  0.126191D-02
     27  0.183333D-02  0.126192D-02  0.183336D-02 -0.642979D-02  0.186742D-02
     28  0.186739D-02 -0.111258D-01  0.126191D-02  0.186739D-02 -0.111258D-01
     29 -0.353878D-03  0.849592D-03  0.444395D-02  0.224205D-02 -0.157297D-02
     30 -0.263971D-02  0.849608D-03  0.671574D-03 -0.436392D-02  0.723410D-03
     31  0.224205D-02 -0.157297D-02 -0.263966D-02 -0.353878D-03  0.849594D-03
     32 -0.436392D-02  0.723413D-03 -0.353892D-03 -0.263971D-02  0.849606D-03
     33  0.444391D-02 -0.157300D-02 -0.436398D-02  0.671557D-03  0.723357D-03
     34  0.671556D-03  0.723356D-03  0.224202D-02  0.444391D-02 -0.157300D-02
               26            27            28            29            30 
     26  0.703329D-02
     27 -0.250079D-02  0.703329D-02
     28 -0.312930D-02 -0.312930D-02  0.222517D-01
     29  0.671571D-03 -0.436404D-02  0.723377D-03  0.150351D-01
     30  0.444399D-02  0.224208D-02 -0.157296D-02 -0.233180D-02  0.150350D-01
     31 -0.436404D-02  0.671570D-03  0.723372D-03  0.490648D-02 -0.733326D-02
     32  0.224208D-02  0.444399D-02 -0.157297D-02 -0.733326D-02 -0.294315D-02
     33 -0.263974D-02 -0.353875D-03  0.849593D-03 -0.733329D-02  0.490642D-02
     34 -0.353875D-03 -0.263974D-02  0.849595D-03 -0.294312D-02 -0.733324D-02
               31            32            33            34 
     31  0.150351D-01
     32 -0.233180D-02  0.150350D-01
     33 -0.294312D-02 -0.733324D-02  0.150350D-01
     34 -0.733329D-02  0.490642D-02 -0.233183D-02  0.150350D-01
 Leave Link  716 at Mon Nov  6 15:52:22 2017, MaxMem=   134217728 cpu:               0.1 elap:               0.2
 (Enter /n/sw/g16_nehalem/g16/l103.exe)

 GradGradGradGradGradGradGradGradGradGradGradGradGradGradGradGradGradGrad
 Berny optimization.
 Red2BG is reusing G-inverse.
 Internal  Forces:  Max     0.000239373 RMS     0.000046422
 Search for a local minimum.
 Step number   1 out of a maximum of    2
 All quantities printed in internal units (Hartrees-Bohrs-Radians)
 Second derivative matrix not updated -- analytic derivatives used.
 ITU=  0
     Eigenvalues ---    0.00115   0.00115   0.00511   0.03052   0.05018
     Eigenvalues ---    0.05018   0.07424   0.07424   0.23153   0.28146
     Eigenvalues ---    0.28146   0.33270
 Angle between quadratic step and forces=  66.93 degrees.
 Linear search not attempted -- first point.
 Iteration  1 RMS(Cart)=  0.00040985 RMS(Int)=  0.00000005
 Iteration  2 RMS(Cart)=  0.00000002 RMS(Int)=  0.00000004
 ITry= 1 IFail=0 DXMaxC= 1.97D-03 DCOld= 1.00D+10 DXMaxT= 3.00D-01 DXLimC= 3.00D+00 Rises=F
 Variable       Old X    -DE/DX   Delta X   Delta X   Delta X     New X
                                 (Linear)    (Quad)   (Total)
    R1        2.09649  -0.00006   0.00000  -0.00020  -0.00020   2.09628
    R2        2.09649  -0.00006   0.00000  -0.00020  -0.00020   2.09628
    R3        2.09649  -0.00006   0.00000  -0.00020  -0.00020   2.09628
    R4        3.37155   0.00024   0.00000   0.00090   0.00090   3.37245
    R5        5.19196   0.00001   0.00000   0.00185   0.00185   5.19381
    R6        5.19196   0.00001   0.00000   0.00185   0.00185   5.19381
    R7        5.19194   0.00001   0.00000   0.00187   0.00187   5.19381
    A1        1.94237  -0.00001   0.00000  -0.00010  -0.00010   1.94226
    A2        1.94237  -0.00001   0.00000  -0.00010  -0.00010   1.94226
    A3        1.87772   0.00001   0.00000   0.00011   0.00011   1.87783
    A4        1.94237  -0.00001   0.00000  -0.00010  -0.00010   1.94226
    A5        1.87772   0.00001   0.00000   0.00011   0.00011   1.87783
    A6        1.87772   0.00001   0.00000   0.00011   0.00011   1.87783
    A7        1.48259   0.00003   0.00000   0.00032   0.00032   1.48291
    A8        1.48259   0.00003   0.00000   0.00032   0.00032   1.48291
    A9        1.48260   0.00003   0.00000   0.00031   0.00031   1.48291
   A10        0.67972  -0.00002   0.00000  -0.00034  -0.00034   0.67937
   A11        0.67972  -0.00002   0.00000  -0.00035  -0.00035   0.67937
   A12        0.67972  -0.00002   0.00000  -0.00035  -0.00035   0.67937
    D1       -1.08869   0.00002   0.00000   0.00015   0.00015  -1.08854
    D2        1.08868  -0.00002   0.00000  -0.00014  -0.00014   1.08854
    D3        3.14159   0.00000   0.00000   0.00001   0.00001   3.14159
    D4        1.08869  -0.00002   0.00000  -0.00015  -0.00015   1.08854
    D5       -1.08868   0.00002   0.00000   0.00014   0.00014  -1.08854
    D6       -3.14159   0.00000   0.00000  -0.00001  -0.00001  -3.14159
    D7       -1.08868   0.00002   0.00000   0.00014   0.00014  -1.08854
    D8        1.08868  -0.00002   0.00000  -0.00014  -0.00014   1.08854
    D9        3.14159   0.00000   0.00000   0.00000   0.00000   3.14159
   D10        0.55900   0.00000   0.00000  -0.00004  -0.00004   0.55896
   D11       -0.55899   0.00000   0.00000   0.00004   0.00004  -0.55896
   D12       -0.55900   0.00000   0.00000   0.00004   0.00004  -0.55896
   D13        0.55899   0.00000   0.00000  -0.00004  -0.00004   0.55896
   D14        0.55899   0.00000   0.00000  -0.00004  -0.00004   0.55896
   D15       -0.55899   0.00000   0.00000   0.00004   0.00004  -0.55896
         Item               Value     Threshold  Converged?
 Maximum Force            0.000239     0.000450     YES
 RMS     Force            0.000046     0.000300     YES
 Maximum Displacement     0.001969     0.001800     NO 
 RMS     Displacement     0.000410     0.001200     YES
 Predicted change in Energy=-1.844653D-07
                           ----------------------------
                           ! Non-Optimized Parameters !
                           ! (Angstroms and Degrees)  !
 --------------------------                            --------------------------
 ! Name  Definition              Value          Derivative Info.                !
 --------------------------------------------------------------------------------
 ! R1    R(1,2)                  1.1093         -DE/DX =   -0.0001              !
 ! R2    R(1,3)                  1.1093         -DE/DX =   -0.0001              !
 ! R3    R(1,4)                  1.1093         -DE/DX =   -0.0001              !
 ! R4    R(1,6)                  1.7846         -DE/DX =    0.0002              !
 ! R5    R(2,5)                  2.7484         -DE/DX =    0.0                 !
 ! R6    R(3,5)                  2.7484         -DE/DX =    0.0                 !
 ! R7    R(4,5)                  2.7484         -DE/DX =    0.0                 !
 ! A1    A(2,1,3)              111.2835         -DE/DX =    0.0                 !
 ! A2    A(2,1,4)              111.2835         -DE/DX =    0.0                 !
 ! A3    A(2,1,6)              107.5917         -DE/DX =    0.0                 !
 ! A4    A(3,1,4)              111.2835         -DE/DX =    0.0                 !
 ! A5    A(3,1,6)              107.5917         -DE/DX =    0.0                 !
 ! A6    A(4,1,6)              107.5917         -DE/DX =    0.0                 !
 ! A7    A(1,2,5)               84.9643         -DE/DX =    0.0                 !
 ! A8    A(1,3,5)               84.9643         -DE/DX =    0.0                 !
 ! A9    A(1,4,5)               84.9643         -DE/DX =    0.0                 !
 ! A10   A(2,5,3)               38.9252         -DE/DX =    0.0                 !
 ! A11   A(2,5,4)               38.9252         -DE/DX =    0.0                 !
 ! A12   A(3,5,4)               38.9252         -DE/DX =    0.0                 !
 ! D1    D(3,1,2,5)            -62.3688         -DE/DX =    0.0                 !
 ! D2    D(4,1,2,5)             62.3688         -DE/DX =    0.0                 !
 ! D3    D(6,1,2,5)            180.0            -DE/DX =    0.0                 !
 ! D4    D(2,1,3,5)             62.3688         -DE/DX =    0.0                 !
 ! D5    D(4,1,3,5)            -62.3688         -DE/DX =    0.0                 !
 ! D6    D(6,1,3,5)           -180.0            -DE/DX =    0.0                 !
 ! D7    D(2,1,4,5)            -62.3688         -DE/DX =    0.0                 !
 ! D8    D(3,1,4,5)             62.3688         -DE/DX =    0.0                 !
 ! D9    D(6,1,4,5)            180.0            -DE/DX =    0.0                 !
 ! D10   D(1,2,5,3)             32.0259         -DE/DX =    0.0                 !
 ! D11   D(1,2,5,4)            -32.0259         -DE/DX =    0.0                 !
 ! D12   D(1,3,5,2)            -32.0259         -DE/DX =    0.0                 !
 ! D13   D(1,3,5,4)             32.0259         -DE/DX =    0.0                 !
 ! D14   D(1,4,5,2)             32.0259         -DE/DX =    0.0                 !
 ! D15   D(1,4,5,3)            -32.0259         -DE/DX =    0.0                 !
 --------------------------------------------------------------------------------
 GradGradGradGradGradGradGradGradGradGradGradGradGradGradGradGradGradGrad

 Leave Link  103 at Mon Nov  6 15:52:22 2017, MaxMem=   134217728 cpu:               0.0 elap:               0.0
 (Enter /n/sw/g16_nehalem/g16/l9999.exe)

 ----------------------------------------------------------------------

 Electric dipole moment (input orientation):
 (Debye = 10**-18 statcoulomb cm , SI units = C m)
                  (au)            (Debye)         (10**-30 SI)
   Tot        0.332975D+01      0.846337D+01      0.282308D+02
   x         -0.332975D+01     -0.846337D+01     -0.282308D+02
   y          0.000000D+00      0.000000D+00      0.000000D+00
   z          0.000000D+00      0.000000D+00      0.000000D+00

 Dipole polarizability, Alpha (input orientation).
 (esu units = cm**3 , SI units = C**2 m**2 J**-1)
 Alpha(0;0):
               (au)            (10**-24 esu)      (10**-40 SI)
   iso        0.171604D+02      0.254291D+01      0.282937D+01
   aniso      0.263123D+02      0.389909D+01      0.433832D+01
   xx         0.347020D+02      0.514230D+01      0.572158D+01
   yx        -0.117251D-03     -0.173748D-04     -0.193320D-04
   yy         0.838961D+01      0.124321D+01      0.138326D+01
   zx         0.000000D+00      0.000000D+00      0.000000D+00
   zy         0.000000D+00      0.000000D+00      0.000000D+00
   zz         0.838963D+01      0.124321D+01      0.138326D+01

 First dipole hyperpolarizability, Beta (input orientation).
 ||, _|_  parallel and perpendicular components, (z) with respect to z axis,
 vector components x,y,z.  Values do not include the 1/n! factor of 1/2.
 (esu units = statvolt**-1 cm**4 , SI units = C**3 m**3 J**-2)
 Beta(0;0,0):
               (au)            (10**-30 esu)      (10**-50 SI)
   || (z)     0.000000D+00      0.000000D+00      0.000000D+00
   _|_(z)     0.000000D+00      0.000000D+00      0.000000D+00
   x         -0.279596D+04     -0.241549D+02     -0.896484D+01
   y          0.387697D-02      0.334940D-04      0.124310D-04
   z         -0.473894D-04     -0.409408D-06     -0.151948D-06
   ||         0.559191D+03      0.483097D+01      0.179297D+01
   xxx       -0.964096D+03     -0.832904D+01     -0.309124D+01
   xxy        0.175573D-02      0.151681D-04      0.562949D-05
   yxy        0.160555D+02      0.138707D+00      0.514796D-01
   yyy        0.196884D+02      0.170092D+00      0.631281D-01
   xxz       -0.292982D-04     -0.253114D-06     -0.939406D-07
   yxz       -0.206848D-04     -0.178701D-06     -0.663230D-07
   yyz       -0.329449D+01     -0.284618D-01     -0.105633D-01
   zxz        0.160552D+02      0.138704D+00      0.514786D-01
   zyz       -0.196888D+02     -0.170096D+00     -0.631296D-01
   zzz        0.329450D+01      0.284619D-01      0.105634D-01

 ----------------------------------------------------------------------

 Dipole orientation:
     6          0.00000038          0.00000575          0.70163405
     1         -1.67292514         -1.09332824          0.06823657
     1          1.78331523         -0.90212873          0.06823612
     1         -0.11038851          1.99546285          0.06821699
    17          0.00000023          0.00001027         -4.72367340
    17         -0.00000030          0.00002520          4.07318269

 Electric dipole moment (dipole orientation):
 (Debye = 10**-18 statcoulomb cm , SI units = C m)
                  (au)            (Debye)         (10**-30 SI)
   Tot        0.332975D+01      0.846337D+01      0.282308D+02
   x          0.000000D+00      0.000000D+00      0.000000D+00
   y          0.000000D+00      0.000000D+00      0.000000D+00
   z          0.332975D+01      0.846337D+01      0.282308D+02

 Dipole polarizability, Alpha (dipole orientation).
 (esu units = cm**3 , SI units = C**2 m**2 J**-1)
 Alpha(0;0):
               (au)            (10**-24 esu)      (10**-40 SI)
   iso        0.171604D+02      0.254291D+01      0.282937D+01
   aniso      0.263123D+02      0.389909D+01      0.433832D+01
   xx         0.838963D+01      0.124321D+01      0.138326D+01
   yx         0.000000D+00      0.000000D+00      0.000000D+00
   yy         0.838961D+01      0.124321D+01      0.138326D+01
   zx         0.000000D+00      0.000000D+00      0.000000D+00
   zy         0.102554D-03      0.151970D-04      0.169089D-04
   zz         0.347020D+02      0.514230D+01      0.572158D+01

 First dipole hyperpolarizability, Beta (dipole orientation).
 ||, _|_  parallel and perpendicular components, (z) with respect to z axis,
 vector components x,y,z.  Values do not include the 1/n! factor of 1/2.
 (esu units = statvolt**-1 cm**4 , SI units = C**3 m**3 J**-2)
 Beta(0;0,0):
               (au)            (10**-30 esu)      (10**-50 SI)
   || (z)     0.559191D+03      0.483097D+01      0.179297D+01
   _|_(z)     0.186397D+03      0.161032D+01      0.597656D+00
   x         -0.103296D-03     -0.892399D-06     -0.331205D-06
   y          0.231530D-02      0.200024D-04      0.742369D-05
   z          0.279596D+04      0.241549D+02      0.896484D+01
   ||         0.559191D+03      0.483097D+01      0.179297D+01
   xxx        0.329447D+01      0.284617D-01      0.105633D-01
   xxy       -0.196888D+02     -0.170096D+00     -0.631295D-01
   yxy       -0.329446D+01     -0.284615D-01     -0.105632D-01
   yyy        0.196884D+02      0.170093D+00      0.631282D-01
   xxz       -0.160552D+02     -0.138704D+00     -0.514787D-01
   yxz        0.184508D-04      0.159401D-06      0.591601D-07
   yyz       -0.160554D+02     -0.138707D+00     -0.514796D-01
   zxz       -0.492177D-04     -0.425202D-06     -0.157810D-06
   zyz        0.119930D-02      0.103610D-04      0.384538D-05
   zzz        0.964096D+03      0.832904D+01      0.309124D+01

 ----------------------------------------------------------------------
 1\1\GINC-HOLY2A03201\Freq\RAM1\ZDO\C1H3Cl2(1-)\ROOT\06-Nov-2017\0\\#P 
 Geom=AllCheck Guess=TCheck SCRF=Check GenChk RAM1/ZDO Freq\\MeCl pre\\
 -1,1\C,-0.3712887478,0.0000032511,0.0000002084\H,-0.036109579,-0.57856
 48622,-0.8852735382\H,-0.0361092485,-0.4773854191,0.9436900461\H,-0.03
 60982857,1.0559534536,-0.0584156711\Cl,2.499660316,0.0000040385,0.0000
 000714\Cl,-2.155435455,0.0000145381,-0.0000001165\\Version=ES64L-G16Re
 vA.03\State=1-A\HF=-0.1038987\RMSD=2.096e-10\RMSF=7.638e-05\ZeroPoint=
 0.0370636\Thermal=0.0423347\Dipole=-3.3297469,0.0000019,0.\DipoleDeriv
 =1.5774973,-0.0000094,0.0000003,-0.0000087,0.0021987,0.,0.0000003,0.,0
 .0021999,0.0150098,-0.0540238,-0.0826637,-0.0319036,0.0814832,-0.00228
 45,-0.0488175,-0.002284,0.0794802,0.0150099,-0.0445761,0.0881184,-0.02
 63241,0.0819597,0.0020093,0.0520388,0.0020088,0.0790038,0.0150149,0.09
 86027,-0.0054547,0.058231,0.0780038,0.0002751,-0.0032214,0.0002751,0.0
 829615,-1.3637869,0.0000008,0.,0.,-0.9362197,0.,0.,0.,-0.93622,-1.2587
 441,0.0000056,-0.0000002,0.0000036,-0.3074256,0.,0.,0.,-0.307425\Polar
 =34.7019543,-0.0001173,8.3896117,0.0000035,0.0000011,8.3896271\HyperPo
 lar=-964.0956564,0.0017557,16.0554607,19.6883838,-0.0000293,-0.0000207
 ,-3.2944899,16.0551567,-19.6888472,3.2945034\PG=C01 [X(C1H3Cl2)]\NImag
 =0\\0.27741912,0.00000144,0.50595945,-0.00000004,0.00000002,0.50595963
 ,-0.04956007,0.03946297,0.06038281,0.06723301,0.04115844,-0.11198720,-
 0.10990191,-0.04540070,0.12495538,0.06297711,-0.10990187,-0.20832335,-
 0.06946812,0.12842013,0.23752394,-0.04956011,0.03256175,-0.06436733,0.
 00637583,-0.00158776,0.00426127,0.06723306,0.03396071,-0.08906208,0.09
 666616,-0.00204810,0.00770425,-0.01031500,-0.03746112,0.09816743,-0.06
 713281,0.09666614,-0.23124842,-0.00406015,0.00614166,-0.02989989,0.074
 05215,-0.11295421,0.26431184,-0.04956142,-0.07202685,0.00398457,0.0063
 7587,0.00454010,0.00025634,0.00637587,0.00448413,-0.00075556,0.0672345
 8,-0.07512142,-0.27941561,0.01323572,-0.00289674,-0.02230598,-0.007011
 46,-0.00249235,-0.01869176,0.00909814,0.08286409,0.32059518,0.00415576
 ,0.01323572,-0.04089331,-0.00350584,-0.02346801,0.00011030,0.00380396,
 0.02555468,-0.00350392,-0.00458409,-0.01546591,0.04188237,0.00561669,-
 0.00000011,0.,-0.00295541,-0.00062714,-0.00095961,-0.00295541,-0.00051
 747,0.00102294,-0.00295551,0.00114471,-0.00006333,0.01390650,0.0000000
 7,0.00022249,0.,0.00023683,-0.00048534,-0.00020067,0.00019542,-0.00044
 348,0.00017651,-0.00043226,-0.00079109,0.00002417,-0.00000005,0.000545
 80,0.,0.,0.00022248,0.00036237,-0.00020067,-0.00066124,-0.00038628,0.0
 0017650,-0.00070310,0.00002391,0.00002417,-0.00035554,0.,0.,0.00054580
 ,-0.13435418,0.00000077,-0.00000002,-0.02746923,0.00191707,0.00293303,
 -0.02746923,0.00158185,-0.00312658,-0.02746943,-0.00349830,0.00019354,
 -0.01065687,0.,0.,0.22741891,0.00000062,-0.02571713,0.,0.01064571,0.00
 211892,-0.00099109,0.00878403,0.00232566,0.00087173,-0.01942912,0.0006
 0931,0.00011934,0.00000007,0.00095163,0.,-0.00000128,0.01971156,-0.000
 00001,0.,-0.02571702,0.01628887,-0.00099119,0.00125023,-0.01736373,0.0
 0087185,0.00104349,0.00107484,0.00011935,0.00276010,0.,0.,0.00095162,0
 .00000003,0.,0.01971156\\-0.00016945,0.,0.,-0.00001035,-0.00004139,-0.
 00006334,-0.00001034,-0.00003415,0.00006752,-0.00001029,0.00007552,-0.
 00000418,-0.00003894,0.00000002,0.,0.00023937,0.,0.\\\@


 ACCORDING TO HEN3RY, LIFE IS MUCH LIKE A SEWER........
 YOU GET OUT OF IT JUST WHAT YOU PUT INTO IT...........
                         TOM LEHRER - (THE 3 IS SILENT)
 Job cpu time:       0 days  0 hours  0 minutes  2.2 seconds.
 Elapsed time:       0 days  0 hours  0 minutes  2.5 seconds.
 File lengths (MBytes):  RWF=      6 Int=      0 D2E=      0 Chk=      2 Scr=      1
 Normal termination of Gaussian 16 at Mon Nov  6 15:52:22 2017.
