 Entering Gaussian System, Link 0=g16
 Input=MeCl_ts.gjf
 Output=MeCl_ts.out
 Initial command:
 /n/sw/g16_nehalem/g16/l1.exe "/scratch/dhuang9_MeCl_ts/Gau-19750.inp" -scrdir="/scratch/dhuang9_MeCl_ts/"
 Entering Link 1 = /n/sw/g16_nehalem/g16/l1.exe PID=     19751.
  
 Copyright (c) 1988,1990,1992,1993,1995,1998,2003,2009,2016,
            Gaussian, Inc.  All Rights Reserved.
  
 This is part of the Gaussian(R) 16 program.  It is based on
 the Gaussian(R) 09 system (copyright 2009, Gaussian, Inc.),
 the Gaussian(R) 03 system (copyright 2003, Gaussian, Inc.),
 the Gaussian(R) 98 system (copyright 1998, Gaussian, Inc.),
 the Gaussian(R) 94 system (copyright 1995, Gaussian, Inc.),
 the Gaussian 92(TM) system (copyright 1992, Gaussian, Inc.),
 the Gaussian 90(TM) system (copyright 1990, Gaussian, Inc.),
 the Gaussian 88(TM) system (copyright 1988, Gaussian, Inc.),
 the Gaussian 86(TM) system (copyright 1986, Carnegie Mellon
 University), and the Gaussian 82(TM) system (copyright 1983,
 Carnegie Mellon University). Gaussian is a federally registered
 trademark of Gaussian, Inc.
  
 This software contains proprietary and confidential information,
 including trade secrets, belonging to Gaussian, Inc.
  
 This software is provided under written license and may be
 used, copied, transmitted, or stored only in accord with that
 written license.
  
 The following legend is applicable only to US Government
 contracts under FAR:
  
                    RESTRICTED RIGHTS LEGEND
  
 Use, reproduction and disclosure by the US Government is
 subject to restrictions as set forth in subparagraphs (a)
 and (c) of the Commercial Computer Software - Restricted
 Rights clause in FAR 52.227-19.
  
 Gaussian, Inc.
 340 Quinnipiac St., Bldg. 40, Wallingford CT 06492
  
  
 ---------------------------------------------------------------
 Warning -- This program may not be used in any manner that
 competes with the business of Gaussian, Inc. or will provide
 assistance to any competitor of Gaussian, Inc.  The licensee
 of this program is prohibited from giving any competitor of
 Gaussian, Inc. access to this program.  By using this program,
 the user acknowledges that Gaussian, Inc. is engaged in the
 business of creating and licensing software in the field of
 computational chemistry and represents and warrants to the
 licensee that it is not a competitor of Gaussian, Inc. and that
 it will not use this program in any manner prohibited above.
 ---------------------------------------------------------------
  

 Cite this work as:
 Gaussian 16, Revision A.03,
 M. J. Frisch, G. W. Trucks, H. B. Schlegel, G. E. Scuseria, 
 M. A. Robb, J. R. Cheeseman, G. Scalmani, V. Barone, 
 G. A. Petersson, H. Nakatsuji, X. Li, M. Caricato, A. V. Marenich, 
 J. Bloino, B. G. Janesko, R. Gomperts, B. Mennucci, H. P. Hratchian, 
 J. V. Ortiz, A. F. Izmaylov, J. L. Sonnenberg, D. Williams-Young, 
 F. Ding, F. Lipparini, F. Egidi, J. Goings, B. Peng, A. Petrone, 
 T. Henderson, D. Ranasinghe, V. G. Zakrzewski, J. Gao, N. Rega, 
 G. Zheng, W. Liang, M. Hada, M. Ehara, K. Toyota, R. Fukuda, 
 J. Hasegawa, M. Ishida, T. Nakajima, Y. Honda, O. Kitao, H. Nakai, 
 T. Vreven, K. Throssell, J. A. Montgomery, Jr., J. E. Peralta, 
 F. Ogliaro, M. J. Bearpark, J. J. Heyd, E. N. Brothers, K. N. Kudin, 
 V. N. Staroverov, T. A. Keith, R. Kobayashi, J. Normand, 
 K. Raghavachari, A. P. Rendell, J. C. Burant, S. S. Iyengar, 
 J. Tomasi, M. Cossi, J. M. Millam, M. Klene, C. Adamo, R. Cammi, 
 J. W. Ochterski, R. L. Martin, K. Morokuma, O. Farkas, 
 J. B. Foresman, and D. J. Fox, Gaussian, Inc., Wallingford CT, 2016.
 
 ******************************************
 Gaussian 16:  ES64L-G16RevA.03 25-Dec-2016
                 6-Nov-2017 
 ******************************************
 %mem=1GB
 -----------------------------------------------
 #p opt=(ts,noeigentest,calcfc) freq=noraman am1
 -----------------------------------------------
 1/5=1,10=4,11=1,18=20,26=1,38=1/1,3;
 2/9=110,12=2,17=6,18=5,40=1/2;
 3/5=2,25=1,41=700000,71=2,140=1/1,2,3;
 4/35=1/1;
 5/5=2,35=1,38=5/2;
 8/6=4,10=90,11=11/1;
 11/6=1,8=1,9=11,15=111,16=1/1,2,10;
 10/6=1,13=1/2;
 6/7=2,8=2,9=2,10=2,28=1/1;
 7/10=1,18=20,25=1/1,2,3,16;
 1/5=1,10=4,11=1,18=20,26=1/3(2);
 2/9=110/2;
 99//99;
 2/9=110/2;
 3/5=2,25=1,41=700000,71=1,135=20/1,2,3;
 4/5=5,16=3,35=1/1;
 5/5=2,35=1,38=5/2;
 7//1,2,3,16;
 1/5=1,11=1,18=20,26=1/3(-5);
 2/9=110/2;
 6/7=2,8=2,9=2,10=2,19=2,28=1/1;
 99/9=1/99;
 Leave Link    1 at Mon Nov  6 15:37:50 2017, MaxMem=   134217728 cpu:               0.0 elap:               0.1
 (Enter /n/sw/g16_nehalem/g16/l101.exe)
 -------
 MeCl ts
 -------
 Symbolic Z-matrix:
 Charge = -1 Multiplicity = 1
 C                     0.01994   0.00032   0.00004 
 H                    -0.00222   0.56204   0.94267 
 H                    -0.00225   0.5367   -0.95726 
 H                    -0.00252  -1.09683   0.01464 
 Cl                    2.14093  -0.00012  -0.00001 
 Cl                   -2.14755  -0.00011  -0.00001 
 
 Add virtual bond connecting atoms Cl6        and C1         Dist= 4.10D+00.
 ITRead=  0  0  0  0  0  0
 MicOpt= -1 -1 -1 -1 -1 -1
 NAtoms=      6 NQM=        6 NQMF=       0 NMMI=      0 NMMIF=      0
                NMic=       0 NMicF=      0.
                    Isotopes and Nuclear Properties:
 (Nuclear quadrupole moments (NQMom) in fm**2, nuclear magnetic moments (NMagM)
  in nuclear magnetons)

  Atom         1           2           3           4           5           6
 IAtWgt=          12           1           1           1          35          35
 AtmWgt=  12.0000000   1.0078250   1.0078250   1.0078250  34.9688527  34.9688527
 NucSpn=           0           1           1           1           3           3
 AtZEff=   0.0000000   0.0000000   0.0000000   0.0000000   0.0000000   0.0000000
 NQMom=    0.0000000   0.0000000   0.0000000   0.0000000  -8.1650000  -8.1650000
 NMagM=    0.0000000   2.7928460   2.7928460   2.7928460   0.8218740   0.8218740
 AtZNuc=   6.0000000   1.0000000   1.0000000   1.0000000  17.0000000  17.0000000
 Leave Link  101 at Mon Nov  6 15:37:50 2017, MaxMem=   134217728 cpu:               0.3 elap:               0.3
 (Enter /n/sw/g16_nehalem/g16/l103.exe)

 GradGradGradGradGradGradGradGradGradGradGradGradGradGradGradGradGradGrad
 Berny optimization.
 Initialization pass.
                           ----------------------------
                           !    Initial Parameters    !
                           ! (Angstroms and Degrees)  !
 --------------------------                            --------------------------
 ! Name  Definition              Value          Derivative Info.                !
 --------------------------------------------------------------------------------
 ! R1    R(1,2)                  1.0975         calculate D2E/DX2 analytically  !
 ! R2    R(1,3)                  1.0975         calculate D2E/DX2 analytically  !
 ! R3    R(1,4)                  1.0975         calculate D2E/DX2 analytically  !
 ! R4    R(1,5)                  2.121          calculate D2E/DX2 analytically  !
 ! R5    R(1,6)                  2.1675         calculate D2E/DX2 analytically  !
 ! A1    A(2,1,3)              119.9063         calculate D2E/DX2 analytically  !
 ! A2    A(2,1,4)              119.9873         calculate D2E/DX2 analytically  !
 ! A3    A(2,1,5)               91.164          calculate D2E/DX2 analytically  !
 ! A4    A(2,1,6)               88.8499         calculate D2E/DX2 analytically  !
 ! A5    A(3,1,4)              119.9838         calculate D2E/DX2 analytically  !
 ! A6    A(3,1,5)               91.1636         calculate D2E/DX2 analytically  !
 ! A7    A(3,1,6)               88.8458         calculate D2E/DX2 analytically  !
 ! A8    A(4,1,5)               91.1606         calculate D2E/DX2 analytically  !
 ! A9    A(4,1,6)               88.8161         calculate D2E/DX2 analytically  !
 ! A10   L(5,1,6,2,-1)         180.0139         calculate D2E/DX2 analytically  !
 ! A11   L(5,1,6,2,-2)         180.0188         calculate D2E/DX2 analytically  !
 ! D1    D(2,1,4,3)            175.972          calculate D2E/DX2 analytically  !
 ! D2    D(2,1,5,3)           -119.9472         calculate D2E/DX2 analytically  !
 ! D3    D(2,1,6,3)            119.9464         calculate D2E/DX2 analytically  !
 ! D4    D(2,1,5,4)            120.0281         calculate D2E/DX2 analytically  !
 ! D5    D(2,1,6,4)           -120.0285         calculate D2E/DX2 analytically  !
 ! D6    D(3,1,5,4)           -120.0246         calculate D2E/DX2 analytically  !
 ! D7    D(3,1,6,4)            120.0251         calculate D2E/DX2 analytically  !
 --------------------------------------------------------------------------------
 Trust Radius=3.00D-01 FncErr=1.00D-07 GrdErr=1.00D-07 EigMax=2.50D+02 EigMin=1.00D-04
 Number of steps in this run=     33 maximum allowed number of steps=    100.
 Search for a saddle point of order  1.
 GradGradGradGradGradGradGradGradGradGradGradGradGradGradGradGradGradGrad

 Leave Link  103 at Mon Nov  6 15:37:51 2017, MaxMem=   134217728 cpu:               0.0 elap:               0.0
 (Enter /n/sw/g16_nehalem/g16/l202.exe)
                          Input orientation:                          
 ---------------------------------------------------------------------
 Center     Atomic      Atomic             Coordinates (Angstroms)
 Number     Number       Type             X           Y           Z
 ---------------------------------------------------------------------
      1          6           0        0.019942    0.000323    0.000036
      2          1           0       -0.002217    0.562044    0.942666
      3          1           0       -0.002254    0.536699   -0.957257
      4          1           0       -0.002515   -1.096828    0.014643
      5         17           0        2.140926   -0.000118   -0.000008
      6         17           0       -2.147553   -0.000108   -0.000007
 ---------------------------------------------------------------------
                    Distance matrix (angstroms):
                    1          2          3          4          5
     1  C    0.000000
     2  H    1.097530   0.000000
     3  H    1.097544   1.900092   0.000000
     4  H    1.097478   1.900811   1.900789   0.000000
     5  Cl   2.120984   2.407846   2.407845   2.407764   0.000000
     6  Cl   2.167495   2.409795   2.409730   2.409190   4.288479
                    6
     6  Cl   0.000000
 Stoichiometry    CH3Cl2(1-)
 Framework group  C1[X(CH3Cl2)]
 Deg. of freedom    12
 Full point group                 C1      NOp   1
 Largest Abelian subgroup         C1      NOp   1
 Largest concise Abelian subgroup C1      NOp   1
                         Standard orientation:                         
 ---------------------------------------------------------------------
 Center     Atomic      Atomic             Coordinates (Angstroms)
 Number     Number       Type             X           Y           Z
 ---------------------------------------------------------------------
      1          6           0        0.019942   -0.000323   -0.000036
      2          1           0       -0.002217   -0.562044   -0.942666
      3          1           0       -0.002254   -0.536699    0.957257
      4          1           0       -0.002515    1.096828   -0.014643
      5         17           0        2.140926    0.000118    0.000008
      6         17           0       -2.147553    0.000108    0.000007
 ---------------------------------------------------------------------
 Rotational constants (GHZ):         138.8246438           1.5627933           1.5627846
 Leave Link  202 at Mon Nov  6 15:37:51 2017, MaxMem=   134217728 cpu:               0.0 elap:               0.0
 (Enter /n/sw/g16_nehalem/g16/l301.exe)
 Standard basis: VSTO-6G (5D, 7F)
 Ernie: Thresh=  0.10000D-02 Tol=  0.10000D-05 Strict=F.
  NNHCO=     0 NNPyr=     0 NCTC=     0               EPep=         0.000000000
    EC=        31.461168317  ECS=         0.475275208   EG=         0.094797496
   EHC=         0.000000000  EAt=       -33.052413022  AtH=         0.613817027
 EPDDG=         0.000000000  ECC=        32.031241022 EAtT=        33.666230050
 There are    15 symmetry adapted cartesian basis functions of A   symmetry.
 There are    15 symmetry adapted basis functions of A   symmetry.
    15 basis functions,    90 primitive gaussians,    15 cartesian basis functions
    11 alpha electrons       11 beta electrons
       nuclear repulsion energy        65.6974710715 Hartrees.
 IExCor=    0 DFT=F Ex=HF Corr=None ExCW=0 ScaHFX=  1.000000
 ScaDFX=  1.000000  1.000000  1.000000  1.000000 ScalE2=  1.000000  1.000000
 IRadAn=      5 IRanWt=     -1 IRanGd=            0 ICorTp=0 IEmpDi=  4
 Integral buffers will be    131072 words long.
 Regular integral format.
 Two-electron integral symmetry is turned off.
 Leave Link  301 at Mon Nov  6 15:37:51 2017, MaxMem=   134217728 cpu:               0.1 elap:               0.1
 (Enter /n/sw/g16_nehalem/g16/l302.exe)
 Do NDO integrals.
 NPDir=0 NMtPBC=     1 NCelOv=     1 NCel=       1 NClECP=     1 NCelD=      1
         NCelK=      1 NCelE2=     1 NClLst=     1 CellRange=     0.0.
 One-electron integrals computed using PRISM.
 NBasis=    15 RedAO= F EigKep=  0.00D+00  NBF=    15
 NBsUse=    15 1.00D-04 EigRej=  0.00D+00 NBFU=    15
 Leave Link  302 at Mon Nov  6 15:37:51 2017, MaxMem=   134217728 cpu:               0.1 elap:               0.1
 (Enter /n/sw/g16_nehalem/g16/l303.exe)
 DipDrv:  MaxL=1.
 Leave Link  303 at Mon Nov  6 15:37:51 2017, MaxMem=   134217728 cpu:               0.1 elap:               0.1
 (Enter /n/sw/g16_nehalem/g16/l401.exe)
 Simple Huckel Guess.
 JPrj=0 DoOrth=F DoCkMO=F.
 Leave Link  401 at Mon Nov  6 15:37:51 2017, MaxMem=   134217728 cpu:               0.1 elap:               0.1
 (Enter /n/sw/g16_nehalem/g16/l502.exe)
 Keep J ints in memory in canonical form, NReq=859737.
 FoFCou: FMM=F IPFlag=           0 FMFlag=           0 FMFlg1=           0
         NFxFlg=           0 DoJE=F BraDBF=F KetDBF=F FulRan=T
         wScrn=  0.000000 ICntrl=       600 IOpCl=  2 I1Cent=           0 NGrid=           0
         NMat0=    1 NMatS0=     33 NMatT0=    0 NMatD0=    1 NMtDS0=    0 NMtDT0=    0
 Symmetry not used in FoFCou.
 Two-electron integral symmetry not used.
 Closed shell SCF:
 Using DIIS extrapolation, IDIIS=  1040.
 Overlap will be assumed to be unity.
 NGot=   134217728 LenX=   134156814 LenY=   134155932
 Requested convergence on RMS density matrix=1.00D-08 within 128 cycles.
 Requested convergence on MAX density matrix=1.00D-06.
 Requested convergence on             energy=1.00D-06.
 No special actions if energy rises.

 Cycle   1  Pass 1  IDiag  1:
 E= 0.721808838940774E-01
 DIIS: error= 7.35D-02 at cycle   1 NSaved=   1.
 NSaved= 1 IEnMin= 1 EnMin= 0.721808838940774E-01 IErMin= 1 ErrMin= 7.35D-02
 ErrMax= 7.35D-02  0.00D+00 EMaxC= 1.00D-01 BMatC= 7.59D-02 BMatP= 7.59D-02
 IDIUse=3 WtCom= 2.65D-01 WtEn= 7.35D-01
 Coeff-Com:  0.100D+01
 Coeff-En:   0.100D+01
 Coeff:      0.100D+01
 GapD=    2.000 DampG=2.000 DampE=0.500 DampFc=1.0000 IDamp=-1.
 RMSDP=2.18D-02 MaxDP=1.29D-01              OVMax= 0.00D+00

 Cycle   2  Pass 1  IDiag  1:
 E=-0.824303864823719E-01 Delta-E=       -0.154611270376 Rises=F Damp=F
 DIIS: error= 1.28D-02 at cycle   2 NSaved=   2.
 NSaved= 2 IEnMin= 2 EnMin=-0.824303864823719E-01 IErMin= 2 ErrMin= 1.28D-02
 ErrMax= 1.28D-02  0.00D+00 EMaxC= 1.00D-01 BMatC= 3.12D-03 BMatP= 7.59D-02
 IDIUse=3 WtCom= 8.72D-01 WtEn= 1.28D-01
 Coeff-Com: -0.244D+00 0.124D+01
 Coeff-En:   0.000D+00 0.100D+01
 Coeff:     -0.213D+00 0.121D+01
 RMSDP=5.55D-03 MaxDP=3.92D-02 DE=-1.55D-01 OVMax= 0.00D+00

 Cycle   3  Pass 1  IDiag  3:
 E=-0.893143196240374E-01 Delta-E=       -0.006883933142 Rises=F Damp=F
 DIIS: error= 1.18D-03 at cycle   3 NSaved=   3.
 NSaved= 3 IEnMin= 3 EnMin=-0.893143196240374E-01 IErMin= 3 ErrMin= 1.18D-03
 ErrMax= 1.18D-03  0.00D+00 EMaxC= 1.00D-01 BMatC= 3.41D-05 BMatP= 3.12D-03
 IDIUse=3 WtCom= 9.88D-01 WtEn= 1.18D-02
 Coeff-Com:  0.896D-01-0.509D+00 0.142D+01
 Coeff-En:   0.000D+00 0.000D+00 0.100D+01
 Coeff:      0.885D-01-0.503D+00 0.141D+01
 Gap=     0.371 Goal=   None    Shift=    0.000
 RMSDP=1.34D-03 MaxDP=6.29D-03 DE=-6.88D-03 OVMax= 1.15D-02

 Cycle   4  Pass 1  IDiag  3:
 E=-0.895029894113009E-01 Delta-E=       -0.000188669787 Rises=F Damp=F
 DIIS: error= 2.10D-04 at cycle   4 NSaved=   4.
 NSaved= 4 IEnMin= 4 EnMin=-0.895029894113009E-01 IErMin= 4 ErrMin= 2.10D-04
 ErrMax= 2.10D-04  0.00D+00 EMaxC= 1.00D-01 BMatC= 1.60D-06 BMatP= 3.41D-05
 IDIUse=3 WtCom= 9.98D-01 WtEn= 2.10D-03
 Coeff-Com: -0.187D-01 0.105D+00-0.442D+00 0.136D+01
 Coeff-En:   0.000D+00 0.000D+00 0.000D+00 0.100D+01
 Coeff:     -0.187D-01 0.104D+00-0.441D+00 0.136D+01
 Gap=     0.372 Goal=   None    Shift=    0.000
 RMSDP=3.78D-04 MaxDP=1.50D-03 DE=-1.89D-04 OVMax= 3.68D-03

 Cycle   5  Pass 1  IDiag  3:
 E=-0.895147285881990E-01 Delta-E=       -0.000011739177 Rises=F Damp=F
 DIIS: error= 4.80D-05 at cycle   5 NSaved=   5.
 NSaved= 5 IEnMin= 5 EnMin=-0.895147285881990E-01 IErMin= 5 ErrMin= 4.80D-05
 ErrMax= 4.80D-05  0.00D+00 EMaxC= 1.00D-01 BMatC= 7.41D-08 BMatP= 1.60D-06
 IDIUse=1 WtCom= 1.00D+00 WtEn= 0.00D+00
 Coeff-Com:  0.450D-02-0.236D-01 0.119D+00-0.590D+00 0.149D+01
 Coeff:      0.450D-02-0.236D-01 0.119D+00-0.590D+00 0.149D+01
 Gap=     0.372 Goal=   None    Shift=    0.000
 RMSDP=9.33D-05 MaxDP=3.75D-04 DE=-1.17D-05 OVMax= 8.79D-04

 Cycle   6  Pass 1  IDiag  3:
 E=-0.895152492362854E-01 Delta-E=       -0.000000520648 Rises=F Damp=F
 DIIS: error= 8.35D-06 at cycle   6 NSaved=   6.
 NSaved= 6 IEnMin= 6 EnMin=-0.895152492362854E-01 IErMin= 6 ErrMin= 8.35D-06
 ErrMax= 8.35D-06  0.00D+00 EMaxC= 1.00D-01 BMatC= 1.53D-09 BMatP= 7.41D-08
 IDIUse=1 WtCom= 1.00D+00 WtEn= 0.00D+00
 Coeff-Com: -0.509D-03 0.193D-02-0.218D-01 0.196D+00-0.626D+00 0.145D+01
 Coeff:     -0.509D-03 0.193D-02-0.218D-01 0.196D+00-0.626D+00 0.145D+01
 Gap=     0.372 Goal=   None    Shift=    0.000
 RMSDP=1.01D-05 MaxDP=4.88D-05 DE=-5.21D-07 OVMax= 4.58D-05

 Cycle   7  Pass 1  IDiag  3:
 E=-0.895152579446972E-01 Delta-E=       -0.000000008708 Rises=F Damp=F
 DIIS: error= 1.61D-06 at cycle   7 NSaved=   7.
 NSaved= 7 IEnMin= 7 EnMin=-0.895152579446972E-01 IErMin= 7 ErrMin= 1.61D-06
 ErrMax= 1.61D-06  0.00D+00 EMaxC= 1.00D-01 BMatC= 5.26D-11 BMatP= 1.53D-09
 IDIUse=1 WtCom= 1.00D+00 WtEn= 0.00D+00
 Coeff-Com: -0.179D-03 0.126D-02-0.807D-03-0.363D-01 0.148D+00-0.532D+00
 Coeff-Com:  0.142D+01
 Coeff:     -0.179D-03 0.126D-02-0.807D-03-0.363D-01 0.148D+00-0.532D+00
 Coeff:      0.142D+01
 Gap=     0.372 Goal=   None    Shift=    0.000
 RMSDP=1.87D-06 MaxDP=9.12D-06 DE=-8.71D-09 OVMax= 9.76D-06

 Cycle   8  Pass 1  IDiag  3:
 E=-0.895152582415193E-01 Delta-E=       -0.000000000297 Rises=F Damp=F
 DIIS: error= 3.58D-07 at cycle   8 NSaved=   8.
 NSaved= 8 IEnMin= 8 EnMin=-0.895152582415193E-01 IErMin= 8 ErrMin= 3.58D-07
 ErrMax= 3.58D-07  0.00D+00 EMaxC= 1.00D-01 BMatC= 1.64D-12 BMatP= 5.26D-11
 IDIUse=1 WtCom= 1.00D+00 WtEn= 0.00D+00
 Coeff-Com:  0.377D-04-0.350D-03-0.729D-03 0.222D-01-0.825D-01 0.288D+00
 Coeff-Com: -0.799D+00 0.157D+01
 Coeff:      0.377D-04-0.350D-03-0.729D-03 0.222D-01-0.825D-01 0.288D+00
 Coeff:     -0.799D+00 0.157D+01
 Gap=     0.372 Goal=   None    Shift=    0.000
 RMSDP=3.61D-07 MaxDP=2.82D-06 DE=-2.97D-10 OVMax= 3.13D-06

 Cycle   9  Pass 1  IDiag  3:
 E=-0.895152582503158E-01 Delta-E=       -0.000000000009 Rises=F Damp=F
 DIIS: error= 5.60D-08 at cycle   9 NSaved=   9.
 NSaved= 9 IEnMin= 9 EnMin=-0.895152582503158E-01 IErMin= 9 ErrMin= 5.60D-08
 ErrMax= 5.60D-08  0.00D+00 EMaxC= 1.00D-01 BMatC= 3.57D-14 BMatP= 1.64D-12
 IDIUse=1 WtCom= 1.00D+00 WtEn= 0.00D+00
 Coeff-Com:  0.418D-05 0.477D-05 0.392D-03-0.513D-02 0.176D-01-0.574D-01
 Coeff-Com:  0.154D+00-0.312D+00 0.120D+01
 Coeff:      0.418D-05 0.477D-05 0.392D-03-0.513D-02 0.176D-01-0.574D-01
 Coeff:      0.154D+00-0.312D+00 0.120D+01
 Gap=     0.372 Goal=   None    Shift=    0.000
 RMSDP=4.06D-08 MaxDP=3.21D-07 DE=-8.80D-12 OVMax= 3.57D-07

 Cycle  10  Pass 1  IDiag  3:
 E=-0.895152582505574E-01 Delta-E=        0.000000000000 Rises=F Damp=F
 DIIS: error= 1.11D-08 at cycle  10 NSaved=  10.
 NSaved=10 IEnMin=10 EnMin=-0.895152582505574E-01 IErMin=10 ErrMin= 1.11D-08
 ErrMax= 1.11D-08  0.00D+00 EMaxC= 1.00D-01 BMatC= 1.86D-15 BMatP= 3.57D-14
 IDIUse=1 WtCom= 1.00D+00 WtEn= 0.00D+00
 Coeff-Com: -0.100D-05 0.338D-05-0.448D-04 0.449D-03-0.148D-02 0.481D-02
 Coeff-Com: -0.130D-01 0.264D-01-0.442D+00 0.142D+01
 Coeff:     -0.100D-05 0.338D-05-0.448D-04 0.449D-03-0.148D-02 0.481D-02
 Coeff:     -0.130D-01 0.264D-01-0.442D+00 0.142D+01
 Gap=     0.372 Goal=   None    Shift=    0.000
 RMSDP=1.35D-08 MaxDP=8.55D-08 DE=-2.42D-13 OVMax= 9.47D-08

 Cycle  11  Pass 1  IDiag  3:
 E=-0.895152582506000E-01 Delta-E=        0.000000000000 Rises=F Damp=F
 DIIS: error= 1.98D-09 at cycle  11 NSaved=  11.
 NSaved=11 IEnMin=11 EnMin=-0.895152582506000E-01 IErMin=11 ErrMin= 1.98D-09
 ErrMax= 1.98D-09  0.00D+00 EMaxC= 1.00D-01 BMatC= 9.17D-17 BMatP= 1.86D-15
 IDIUse=1 WtCom= 1.00D+00 WtEn= 0.00D+00
 Coeff-Com: -0.186D-06 0.178D-05 0.402D-05-0.123D-03 0.462D-03-0.175D-02
 Coeff-Com:  0.510D-02-0.105D-01 0.213D+00-0.801D+00 0.159D+01
 Coeff:     -0.186D-06 0.178D-05 0.402D-05-0.123D-03 0.462D-03-0.175D-02
 Coeff:      0.510D-02-0.105D-01 0.213D+00-0.801D+00 0.159D+01
 Gap=     0.372 Goal=   None    Shift=    0.000
 RMSDP=3.06D-09 MaxDP=1.15D-08 DE=-4.26D-14 OVMax= 1.89D-08

 Cycle  12  Pass 2  IDiag  1:
 SCF Done:  E(RAM1) = -0.895152582506E-01 A.U. after   12 cycles
            NFock= 11  Conv=0.31D-08     -V/T= 0.9984
 KE=-5.738975430731D+01 PE=-6.408110545582D+01 EE= 5.568387343337D+01
 Leave Link  502 at Mon Nov  6 15:37:51 2017, MaxMem=   134217728 cpu:               0.1 elap:               0.1
 (Enter /n/sw/g16_nehalem/g16/l801.exe)
 Range of M.O.s used for correlation:     1    15
 NBasis=    15 NAE=    11 NBE=    11 NFC=     0 NFV=     0
 NROrb=     15 NOA=    11 NOB=    11 NVA=     4 NVB=     4
 Leave Link  801 at Mon Nov  6 15:37:51 2017, MaxMem=   134217728 cpu:               0.1 elap:               0.1
 (Enter /n/sw/g16_nehalem/g16/l1101.exe)
 Using compressed storage, NAtomX=     6.
 Will process      7 centers per pass.
 Leave Link 1101 at Mon Nov  6 15:37:51 2017, MaxMem=   134217728 cpu:               0.1 elap:               0.1
 (Enter /n/sw/g16_nehalem/g16/l1102.exe)
 Symmetrizing basis deriv contribution to polar:
 IMax=3 JMax=2 DiffMx= 0.00D+00
 Leave Link 1102 at Mon Nov  6 15:37:51 2017, MaxMem=   134217728 cpu:               0.0 elap:               0.1
 (Enter /n/sw/g16_nehalem/g16/l1110.exe)
 Forming Gx(P) for the SCF density, NAtomX=     6.
 Integral derivatives from FoFJK, PRISM(SPDF).
 Do as many integral derivatives as possible in FoFJK.
 G2DrvN: MDV=     134158272.
 G2DrvN: will do     7 centers at a time, making    1 passes.
 Calling FoFCou, ICntrl=  3107 FMM=F I1Cent=   0 AccDes= 0.00D+00.
 FoFJK:  IHMeth= 8 ICntrl=    3107 DoSepK=F KAlg= 0 I1Cent=           0 FoldK=F
 IRaf=         0 NMat=       1 IRICut=       1 DoRegI=T DoRafI=F ISym2E= 0 IDoP0=3 IntGTp=3.
 FoFCou: FMM=F IPFlag=           0 FMFlag=      100000 FMFlg1=           0
         NFxFlg=           0 DoJE=F BraDBF=F KetDBF=F FulRan=T
         wScrn=  0.000000 ICntrl=      3107 IOpCl=  0 I1Cent=           0 NGrid=           0
         NMat0=    1 NMatS0=      1 NMatT0=    0 NMatD0=    1 NMtDS0=    0 NMtDT0=    0
 Symmetry not used in FoFCou.
 End of G2Drv F.D. properties file   721 does not exist.
 End of G2Drv F.D. properties file   722 does not exist.
 End of G2Drv F.D. properties file   788 does not exist.
 Leave Link 1110 at Mon Nov  6 15:37:51 2017, MaxMem=   134217728 cpu:               0.1 elap:               0.1
 (Enter /n/sw/g16_nehalem/g16/l1002.exe)
 Minotr:  Closed shell wavefunction.
          IDoAtm=111111
          Direct CPHF calculation.
          Differentiating once with respect to nuclear coordinates.
          Electric field/nuclear overlap derivatives assumed to be zero.
          Requested convergence is 1.0D-08 RMS, and 1.0D-07 maximum.
          NewPWx=T KeepS1=F KeepF1=F KeepIn=T MapXYZ=F SortEE=F KeepMc=T.
 Keep J ints in memory in canonical form, NReq=860448.
 FoFCou: FMM=F IPFlag=           0 FMFlag=           0 FMFlg1=           0
         NFxFlg=           0 DoJE=F BraDBF=F KetDBF=F FulRan=T
         wScrn=  0.000000 ICntrl=       600 IOpCl=  2 I1Cent=           0 NGrid=           0
         NMat0=    1 NMatS0=     33 NMatT0=    0 NMatD0=    1 NMtDS0=    0 NMtDT0=    0
 Symmetry not used in FoFCou.
 Two-electron integral symmetry not used.
          MDV=     134217728 using IRadAn=       1.
          Solving linear equations separately, MaxMat=       0.
          There are    21 degrees of freedom in the 1st order CPHF.  IDoFFX=5 NUNeed=    21.
 LinEq1:  Iter=  0 NonCon=    18 RMS=5.70D-02 Max=3.09D-01 NDo=    18
 AX will form    21 AO Fock derivatives at one time.
 LinEq1:  Iter=  1 NonCon=    18 RMS=5.26D-03 Max=2.59D-02 NDo=    21
 LinEq1:  Iter=  2 NonCon=    18 RMS=2.43D-04 Max=7.90D-04 NDo=    21
 LinEq1:  Iter=  3 NonCon=    18 RMS=1.76D-05 Max=6.74D-05 NDo=    21
 LinEq1:  Iter=  4 NonCon=    18 RMS=2.06D-06 Max=9.39D-06 NDo=    21
 LinEq1:  Iter=  5 NonCon=    18 RMS=1.97D-07 Max=5.33D-07 NDo=    21
 LinEq1:  Iter=  6 NonCon=     5 RMS=1.19D-08 Max=4.58D-08 NDo=    21
 LinEq1:  Iter=  7 NonCon=     0 RMS=7.10D-10 Max=3.13D-09 NDo=    21
 Linear equations converged to 1.000D-08 1.000D-07 after     7 iterations.
 End of Minotr F.D. properties file   721 does not exist.
 End of Minotr F.D. properties file   722 does not exist.
 End of Minotr F.D. properties file   788 does not exist.
 Leave Link 1002 at Mon Nov  6 15:37:52 2017, MaxMem=   134217728 cpu:               0.1 elap:               0.1
 (Enter /n/sw/g16_nehalem/g16/l601.exe)
 Copying SCF densities to generalized density rwf, IOpCl= 0 IROHF=0.

 **********************************************************************

            Population analysis using the SCF density.

 **********************************************************************

 Orbital symmetries:
       Occupied  (A) (A) (A) (A) (A) (A) (A) (A) (A) (A) (A)
       Virtual   (A) (A) (A) (A)
 The electronic state is 1-A.
 Alpha  occ. eigenvalues --   -1.07036  -1.05037  -0.87347  -0.37569  -0.37556
 Alpha  occ. eigenvalues --   -0.30878  -0.21751  -0.21751  -0.20076  -0.20076
 Alpha  occ. eigenvalues --   -0.16079
 Alpha virt. eigenvalues --    0.21079   0.31135   0.32779   0.32788
          Condensed to atoms (all electrons):
               1          2          3          4          5          6
     1  C    3.897464   0.000000   0.000000   0.000000   0.000000   0.000000
     2  H    0.000000   0.895092   0.000000   0.000000   0.000000   0.000000
     3  H    0.000000   0.000000   0.895092   0.000000   0.000000   0.000000
     4  H    0.000000   0.000000   0.000000   0.894935   0.000000   0.000000
     5  Cl   0.000000   0.000000   0.000000   0.000000   7.685339   0.000000
     6  Cl   0.000000   0.000000   0.000000   0.000000   0.000000   7.732078
 Mulliken charges:
               1
     1  C    0.102536
     2  H    0.104908
     3  H    0.104908
     4  H    0.105065
     5  Cl  -0.685339
     6  Cl  -0.732078
 Sum of Mulliken charges =  -1.00000
 Mulliken charges with hydrogens summed into heavy atoms:
               1
     1  C    0.417417
     5  Cl  -0.685339
     6  Cl  -0.732078
 APT charges:
               1
     1  C    0.102536
     2  H    0.104908
     3  H    0.104908
     4  H    0.105065
     5  Cl  -0.685339
     6  Cl  -0.732078
 Sum of APT charges =  -1.00000
 APT charges with hydrogens summed into heavy atoms:
               1
     1  C    0.417417
     5  Cl  -0.685339
     6  Cl  -0.732078
 Charge=             -1.0000 electrons
 Dipole moment (field-independent basis, Debye):
    X=              0.5086    Y=             -0.0014    Z=             -0.0001  Tot=              0.5086
 N-N= 6.569747107152D+01 E-N=-6.408110544087D+01  KE=-5.738975430731D+01
  Exact polarizability:   0.000   0.000   0.000   0.000   0.000   0.000
 Approx polarizability:  50.629   0.000   4.694   0.000   0.000   4.690
 Leave Link  601 at Mon Nov  6 15:37:52 2017, MaxMem=   134217728 cpu:               0.1 elap:               0.1
 (Enter /n/sw/g16_nehalem/g16/l701.exe)
 ... and contract with generalized density number  0.
 Compute integral second derivatives.
 Leave Link  701 at Mon Nov  6 15:37:52 2017, MaxMem=   134217728 cpu:               0.1 elap:               0.1
 (Enter /n/sw/g16_nehalem/g16/l702.exe)
 L702 exits ... SP integral derivatives will be done elsewhere.
 Leave Link  702 at Mon Nov  6 15:37:52 2017, MaxMem=   134217728 cpu:               0.0 elap:               0.1
 (Enter /n/sw/g16_nehalem/g16/l703.exe)
 Integral derivatives from FoFJK, PRISM(SPDF).
 Compute integral second derivatives, UseDBF=F ICtDFT=           0.
 Calling FoFJK, ICntrl=    100147 FMM=F ISym2X=0 I1Cent= 0 IOpClX= 0 NMat=1 NMatS=1 NMatT=0.
 FoFJK:  IHMeth= 8 ICntrl=  100147 DoSepK=F KAlg= 0 I1Cent=           0 FoldK=F
 IRaf=         0 NMat=       1 IRICut=       1 DoRegI=T DoRafI=F ISym2E= 0 IDoP0=3 IntGTp=3.
 FoFCou: FMM=F IPFlag=           0 FMFlag=      100000 FMFlg1=         800
         NFxFlg=           0 DoJE=F BraDBF=F KetDBF=F FulRan=T
         wScrn=  0.000000 ICntrl=    100147 IOpCl=  0 I1Cent=           0 NGrid=           0
         NMat0=    1 NMatS0=      1 NMatT0=    0 NMatD0=    1 NMtDS0=    0 NMtDT0=    0
 Symmetry not used in FoFCou.
 Leave Link  703 at Mon Nov  6 15:37:52 2017, MaxMem=   134217728 cpu:               0.1 elap:               0.1
 (Enter /n/sw/g16_nehalem/g16/l716.exe)
 Dipole        = 2.00095711D-01-5.59854450D-04-4.09014493D-05
 Polarizability= 0.00000000D+00 0.00000000D+00 0.00000000D+00
                 0.00000000D+00 0.00000000D+00 0.00000000D+00
 ***** Axes restored to original set *****
 -------------------------------------------------------------------
 Center     Atomic                   Forces (Hartrees/Bohr)
 Number     Number              X              Y              Z
 -------------------------------------------------------------------
      1        6           0.003656567    0.000089173   -0.000012871
      2        1          -0.000032119   -0.000028396    0.000059450
      3        1          -0.000029480   -0.000030998   -0.000051666
      4        1          -0.000014123   -0.000042268    0.000003091
      5       17           0.000044302    0.000001863    0.000000573
      6       17          -0.003625146    0.000010627    0.000001422
 -------------------------------------------------------------------
 Cartesian Forces:  Max     0.003656567 RMS     0.001214135
 Force constants in Cartesian coordinates: 
                1             2             3             4             5 
      1 -0.819369D-01
      2  0.728320D-04  0.570836D+00
      3  0.690202D-05  0.110673D-04  0.570321D+00
      4 -0.164543D-02  0.288476D-02  0.484402D-02  0.415873D-01
      5  0.303047D-02 -0.116182D+00 -0.122688D+00 -0.314017D-02  0.123236D+00
      6  0.509524D-02 -0.122688D+00 -0.248973D+00 -0.527467D-02  0.139901D+00
      7 -0.164563D-02  0.275845D-02 -0.492635D-02  0.307721D-02 -0.197341D-03
      8  0.289789D-02 -0.109729D+00  0.118962D+00 -0.206666D-03  0.800421D-02
      9 -0.518325D-02  0.118962D+00 -0.255407D+00 -0.343478D-03  0.858409D-02
     10 -0.157127D-02 -0.570991D-02  0.760136D-04  0.306224D-02  0.398423D-03
     11 -0.601581D-02 -0.322115D+00  0.371520D-02 -0.206225D-03 -0.167564D-01
     12  0.795991D-04  0.371556D-02 -0.431242D-01 -0.348607D-03 -0.228774D-01
     13  0.428228D-01  0.336309D-05  0.000000D+00 -0.236402D-01  0.281182D-02
     14 -0.106477D-04 -0.126511D-01  0.000000D+00  0.536929D-02  0.914768D-03
     15 -0.147177D-05  0.000000D+00 -0.126526D-01  0.900903D-02 -0.147269D-02
     16  0.439764D-01 -0.948872D-05  0.000000D+00 -0.224411D-01 -0.290318D-02
     17  0.252456D-04 -0.101586D-01  0.000000D+00 -0.470099D-02  0.783359D-03
     18  0.297775D-05  0.000000D+00 -0.101636D-01 -0.788629D-02 -0.144642D-02
                6             7             8             9            10 
      6  0.274732D+00
      7  0.348035D-03  0.415906D-01
      8 -0.945298D-02 -0.300248D-02  0.115880D+00
      9 -0.245596D-01  0.536455D-02 -0.135651D+00  0.282071D+00
     10 -0.897471D-05  0.306242D-02  0.399008D-03 -0.186271D-05  0.415848D-01
     11 -0.484084D-02 -0.196619D-03 -0.160070D-01  0.527533D-02  0.621751D-02
     12  0.257234D-03  0.353796D-03  0.233116D-01 -0.493980D-03 -0.825164D-04
     13  0.470823D-02 -0.236410D-01  0.268528D-02 -0.478069D-02 -0.236624D-01
     14 -0.147156D-02  0.512719D-02  0.992128D-03  0.142685D-02 -0.104782D-01
     15 -0.675771D-03 -0.914789D-02  0.142806D-02 -0.752614D-03  0.140255D-03
     16 -0.486783D-02 -0.224435D-01 -0.277302D-02  0.494470D-02 -0.224757D-01
     17 -0.144699D-02 -0.448920D-02  0.859529D-03  0.140350D-02  0.917318D-02
     18 -0.781262D-03  0.800786D-02  0.140277D-02 -0.857290D-03 -0.122915D-03
               11            12            13            14            15 
     11  0.358073D+00
     12 -0.423835D-02  0.399201D-01
     13 -0.547806D-02  0.734429D-04  0.634764D-01
     14 -0.154983D-02  0.447217D-04 -0.139490D-04  0.102352D-01
     15  0.446457D-04  0.179277D-02  0.000000D+00  0.000000D+00  0.102300D-01
     16  0.567917D-02 -0.757143D-04 -0.353555D-01  0.632333D-05  0.000000D+00
     17 -0.164541D-02  0.438615D-04 -0.842648D-05  0.205878D-02  0.000000D+00
     18  0.440173D-04  0.164810D-02  0.000000D+00  0.000000D+00  0.205815D-02
               16            17            18 
     16  0.587395D-01
     17  0.000000D+00  0.810234D-02
     18  0.000000D+00  0.000000D+00  0.809592D-02
 FormGI is forming the generalized inverse of G from B-inverse, IUseBI=4.
 Force constants in internal coordinates: 
                1             2             3             4             5 
      1  0.358194D+00
      2  0.125935D-01  0.358174D+00
      3  0.125701D-01  0.125708D-01  0.358252D+00
      4  0.596034D-02  0.596034D-02  0.596123D-02  0.634764D-01
      5  0.521376D-02  0.521427D-02  0.521829D-02  0.353555D-01  0.587395D-01
      6  0.269139D-02  0.269096D-02 -0.535086D-02 -0.317101D-03  0.300663D-03
      7  0.268658D-02 -0.535678D-02  0.269240D-02 -0.699054D-03  0.671799D-03
      8  0.194025D-02 -0.111982D-02 -0.118506D-02  0.813461D-02 -0.779527D-02
      9  0.178445D-02 -0.741498D-03 -0.679206D-03 -0.813186D-02  0.778919D-02
     10 -0.535679D-02  0.268701D-02  0.269285D-02 -0.699208D-03  0.672354D-03
     11 -0.112006D-02  0.193974D-02 -0.118417D-02  0.813581D-02 -0.779675D-02
     12 -0.741873D-03  0.178379D-02 -0.678082D-03 -0.813278D-02  0.779403D-02
     13 -0.112100D-02 -0.112060D-02  0.187813D-02  0.814759D-02 -0.782174D-02
     14 -0.741495D-03 -0.740781D-03  0.184728D-02 -0.815345D-02  0.783062D-02
     15  0.372470D-02 -0.186132D-02 -0.186427D-02  0.274702D-05 -0.608499D-05
     16 -0.181206D-05  0.322675D-02 -0.322620D-02  0.524537D-05 -0.680317D-05
     17  0.456759D-03  0.456784D-03  0.347167D-03 -0.281596D-01  0.270013D-01
     18 -0.272243D-02 -0.272200D-02  0.543854D-02 -0.254521D-03  0.247128D-03
     19  0.265723D-02  0.265692D-02 -0.530795D-02  0.248592D-03 -0.241332D-03
     20  0.271755D-02 -0.543997D-02  0.271904D-02 -0.127133D-03  0.123244D-03
     21 -0.265156D-02  0.530890D-02 -0.265383D-02  0.124726D-03 -0.120946D-03
     22  0.543998D-02 -0.271797D-02 -0.271950D-02  0.127388D-03 -0.123884D-03
     23 -0.530880D-02  0.265198D-02  0.265412D-02 -0.123865D-03  0.120387D-03
                6             7             8             9            10 
      6  0.637109D-02
      7 -0.318278D-02  0.638927D-02
      8 -0.392602D-04 -0.205315D-03  0.384744D-01
      9  0.816738D-03  0.986253D-03 -0.215958D-01  0.359391D-01
     10 -0.318312D-02 -0.316689D-02 -0.155703D-03 -0.140397D-02  0.638964D-02
     11 -0.402657D-04 -0.155140D-03 -0.163720D-01  0.795337D-02 -0.204866D-03
     12  0.814964D-03 -0.140289D-02  0.795311D-02 -0.151212D-01  0.986948D-03
     13  0.564500D-05 -0.203234D-03 -0.163908D-01  0.795508D-02 -0.203361D-03
     14 -0.155881D-02  0.980565D-03  0.793725D-02 -0.151252D-01  0.981709D-03
     15  0.777478D-03  0.780938D-03  0.168786D-01  0.143433D-01 -0.155968D-02
     16  0.134500D-02 -0.134985D-02  0.831634D-05 -0.902006D-05  0.266464D-05
     17  0.343561D-03  0.520636D-03 -0.656959D-02  0.658045D-02  0.520985D-03
     18 -0.637354D-02  0.319807D-02 -0.737461D-03 -0.337961D-03  0.319842D-02
     19  0.631946D-02 -0.317090D-02  0.436041D-03  0.919449D-04 -0.317113D-02
     20 -0.318658D-02  0.638017D-02  0.570054D-03  0.507953D-03 -0.318213D-02
     21  0.315963D-02 -0.632514D-02 -0.281723D-03 -0.243596D-03  0.315421D-02
     22  0.318696D-02  0.318210D-02  0.130752D-02  0.845914D-03 -0.638055D-02
     23 -0.315983D-02 -0.315424D-02 -0.717764D-03 -0.335541D-03  0.632534D-02
               11            12            13            14            15 
     11  0.384726D-01
     12 -0.215997D-01  0.359383D-01
     13 -0.163872D-01  0.795820D-02  0.384564D-01
     14  0.793999D-02 -0.151226D-01 -0.216049D-01  0.359642D-01
     15 -0.841867D-02 -0.716811D-02 -0.843575D-02 -0.718800D-02  0.312219D-01
     16  0.146258D-01  0.124209D-01 -0.145912D-01 -0.124332D-01  0.000000D+00
     17 -0.656953D-02  0.658042D-02 -0.657881D-02  0.655711D-02  0.108654D-04
     18 -0.736622D-03 -0.335915D-03  0.114645D-02  0.100203D-02 -0.107542D-02
     19  0.433924D-03  0.923363D-04 -0.548073D-03 -0.507553D-03  0.527985D-03
     20 -0.130711D-02 -0.844593D-03  0.573381D-03  0.500302D-03  0.107801D-02
     21  0.716346D-03  0.336377D-03 -0.273434D-03 -0.254413D-03 -0.525320D-03
     22 -0.570489D-03 -0.508678D-03 -0.573074D-03 -0.501724D-03  0.215343D-02
     23  0.282422D-03  0.244040D-03  0.274639D-03  0.253140D-03 -0.105331D-02
               16            17            18            19            20 
     16  0.312208D-01
     17  0.187394D-04  0.227428D-01
     18 -0.186051D-02  0.117978D-03  0.643061D-02
     19  0.914455D-03 -0.114111D-03 -0.635524D-02  0.631815D-02
     20 -0.186395D-02  0.587559D-04  0.321512D-02 -0.317747D-02  0.642563D-02
     21  0.913842D-03 -0.572759D-04 -0.317751D-02  0.315897D-02 -0.634987D-02
     22 -0.344604D-05 -0.592221D-04 -0.321549D-02  0.317777D-02  0.321051D-02
     23  0.000000D+00  0.568346D-04  0.317773D-02 -0.315918D-02 -0.317240D-02
               21            22            23 
     21  0.631282D-02
     22 -0.317236D-02  0.642600D-02
     23  0.315385D-02 -0.635013D-02  0.631303D-02
 Leave Link  716 at Mon Nov  6 15:37:52 2017, MaxMem=   134217728 cpu:               0.1 elap:               0.1
 (Enter /n/sw/g16_nehalem/g16/l103.exe)

 GradGradGradGradGradGradGradGradGradGradGradGradGradGradGradGradGradGrad
 Berny optimization.
 Red2BG is reusing G-inverse.
 Internal  Forces:  Max     0.003625144 RMS     0.000756213
 Search for a saddle point.
 Step number   1 out of a maximum of   33
 All quantities printed in internal units (Hartrees-Bohrs-Radians)
 Swapping is turned off.
 Second derivative matrix not updated -- analytic derivatives used.
 ITU=  0
     Eigenvalues ---   -0.01805   0.02732   0.02734   0.05489   0.05491
     Eigenvalues ---    0.07767   0.08283   0.08284   0.09612   0.34634
     Eigenvalues ---    0.34641   0.38402
 Eigenvectors required to have negative eigenvalues:
                          D1        R5        R4        A8        A9
   1                   -0.55085   0.52792  -0.51520   0.15939  -0.15932
                          A7        A4        A6        A3        A5
   1                   -0.15913  -0.15910   0.15909   0.15908  -0.01219
 RFO step:  Lambda0=2.010737613D-04 Lambda=-1.08284635D-04.
 Linear search not attempted -- option 19 set.
 Iteration  1 RMS(Cart)=  0.00993184 RMS(Int)=  0.00031044
 Iteration  2 RMS(Cart)=  0.00015967 RMS(Int)=  0.00026619
 Iteration  3 RMS(Cart)=  0.00000000 RMS(Int)=  0.00026619
 ITry= 1 IFail=0 DXMaxC= 3.61D-02 DCOld= 1.00D+10 DXMaxT= 3.00D-01 DXLimC= 3.00D+00 Rises=F
 Variable       Old X    -DE/DX   Delta X   Delta X   Delta X     New X
                                 (Linear)    (Quad)   (Total)
    R1        2.07403   0.00004   0.00000  -0.00068  -0.00068   2.07336
    R2        2.07406   0.00003   0.00000  -0.00070  -0.00070   2.07336
    R3        2.07393   0.00004   0.00000  -0.00058  -0.00058   2.07335
    R4        4.00808   0.00004   0.00000   0.06285   0.06285   4.07093
    R5        4.09597   0.00363   0.00000  -0.02551  -0.02551   4.07046
    A1        2.09276   0.00002   0.00000   0.00236   0.00163   2.09439
    A2        2.09417  -0.00001   0.00000   0.00096   0.00023   2.09440
    A3        1.59111   0.00001   0.00000  -0.02065  -0.02065   1.57047
    A4        1.55072  -0.00002   0.00000   0.02040   0.02040   1.57112
    A5        2.09411  -0.00001   0.00000   0.00102   0.00028   2.09440
    A6        1.59110   0.00001   0.00000  -0.02065  -0.02064   1.57046
    A7        1.55065  -0.00002   0.00000   0.02048   0.02047   1.57112
    A8        1.59105   0.00000   0.00000  -0.02061  -0.02061   1.57045
    A9        1.55013   0.00001   0.00000   0.02103   0.02102   1.57116
   A10        3.14184  -0.00001   0.00000  -0.00025  -0.00025   3.14159
   A11        3.14192  -0.00001   0.00000  -0.00034  -0.00034   3.14158
    D1        3.07129  -0.00003   0.00000   0.07146   0.07147  -3.14042
    D2       -2.09347  -0.00002   0.00000  -0.00091  -0.00091  -2.09439
    D3        2.09346   0.00003   0.00000   0.00094   0.00093   2.09439
    D4        2.09489  -0.00001   0.00000  -0.00049  -0.00049   2.09440
    D5       -2.09489   0.00001   0.00000   0.00050   0.00049  -2.09440
    D6       -2.09483   0.00001   0.00000   0.00042   0.00043  -2.09440
    D7        2.09483  -0.00001   0.00000  -0.00044  -0.00044   2.09440
         Item               Value     Threshold  Converged?
 Maximum Force            0.003625     0.000450     NO 
 RMS     Force            0.000756     0.000300     NO 
 Maximum Displacement     0.036119     0.001800     NO 
 RMS     Displacement     0.009931     0.001200     NO 
 Predicted change in Energy= 4.743369D-05
 Lowest energy point so far.  Saving SCF results.
 GradGradGradGradGradGradGradGradGradGradGradGradGradGradGradGradGradGrad

 Leave Link  103 at Mon Nov  6 15:37:52 2017, MaxMem=   134217728 cpu:               0.0 elap:               0.0
 (Enter /n/sw/g16_nehalem/g16/l202.exe)
                          Input orientation:                          
 ---------------------------------------------------------------------
 Center     Atomic      Atomic             Coordinates (Angstroms)
 Number     Number       Type             X           Y           Z
 ---------------------------------------------------------------------
      1          6           0        0.000828    0.000330    0.000012
      2          1           0        0.001210    0.561539    0.942791
      3          1           0        0.001204    0.536203   -0.957395
      4          1           0        0.001183   -1.096744    0.014639
      5         17           0        2.155071    0.000271    0.000006
      6         17           0       -2.153167    0.000412    0.000019
 ---------------------------------------------------------------------
                    Distance matrix (angstroms):
                    1          2          3          4          5
     1  C    0.000000
     2  H    1.097172   0.000000
     3  H    1.097172   1.900355   0.000000
     4  H    1.097172   1.900360   1.900359   0.000000
     5  Cl   2.154242   2.417226   2.417226   2.417207   0.000000
     6  Cl   2.153996   2.417648   2.417650   2.417683   4.308238
                    6
     6  Cl   0.000000
 Stoichiometry    CH3Cl2(1-)
 Framework group  C1[X(CH3Cl2)]
 Deg. of freedom    12
 Full point group                 C1      NOp   1
 RotChk:  IX=0 Diff= 5.93D-02
 Largest Abelian subgroup         C1      NOp   1
 Largest concise Abelian subgroup C1      NOp   1
                         Standard orientation:                         
 ---------------------------------------------------------------------
 Center     Atomic      Atomic             Coordinates (Angstroms)
 Number     Number       Type             X           Y           Z
 ---------------------------------------------------------------------
      1          6           0       -0.000123    0.000009    0.000000
      2          1           0        0.000237   -0.600227   -0.918425
      3          1           0        0.000238   -0.495258    0.979029
      4          1           0        0.000267    1.095506   -0.060603
      5         17           0        2.154119   -0.000003    0.000000
      6         17           0       -2.154119   -0.000002    0.000000
 ---------------------------------------------------------------------
 Rotational constants (GHZ):         138.8548858           1.5485952           1.5485951
 Leave Link  202 at Mon Nov  6 15:37:52 2017, MaxMem=   134217728 cpu:               0.0 elap:               0.0
 (Enter /n/sw/g16_nehalem/g16/l301.exe)
 Standard basis: VSTO-6G (5D, 7F)
 Ernie: Thresh=  0.10000D-02 Tol=  0.10000D-05 Strict=F.
  NNHCO=     0 NNPyr=     0 NCTC=     0               EPep=         0.000000000
    EC=        31.363833327  ECS=         0.473087202   EG=         0.093050827
   EHC=         0.000000000  EAt=       -33.052413022  AtH=         0.613817027
 EPDDG=         0.000000000  ECC=        31.929971356 EAtT=        33.666230050
 There are    15 symmetry adapted cartesian basis functions of A   symmetry.
 There are    15 symmetry adapted basis functions of A   symmetry.
    15 basis functions,    90 primitive gaussians,    15 cartesian basis functions
    11 alpha electrons       11 beta electrons
       nuclear repulsion energy        65.5962014057 Hartrees.
 IExCor=    0 DFT=F Ex=HF Corr=None ExCW=0 ScaHFX=  1.000000
 ScaDFX=  1.000000  1.000000  1.000000  1.000000 ScalE2=  1.000000  1.000000
 IRadAn=      5 IRanWt=     -1 IRanGd=            0 ICorTp=0 IEmpDi=  4
 Integral buffers will be    131072 words long.
 Regular integral format.
 Two-electron integral symmetry is turned off.
 Leave Link  301 at Mon Nov  6 15:37:52 2017, MaxMem=   134217728 cpu:               0.1 elap:               0.1
 (Enter /n/sw/g16_nehalem/g16/l302.exe)
 Do NDO integrals.
 NPDir=0 NMtPBC=     1 NCelOv=     1 NCel=       1 NClECP=     1 NCelD=      1
         NCelK=      1 NCelE2=     1 NClLst=     1 CellRange=     0.0.
 One-electron integrals computed using PRISM.
 NBasis=    15 RedAO= F EigKep=  0.00D+00  NBF=    15
 NBsUse=    15 1.00D-04 EigRej=  0.00D+00 NBFU=    15
 Leave Link  302 at Mon Nov  6 15:37:52 2017, MaxMem=   134217728 cpu:               0.1 elap:               0.1
 (Enter /n/sw/g16_nehalem/g16/l303.exe)
 DipDrv:  MaxL=1.
 Leave Link  303 at Mon Nov  6 15:37:52 2017, MaxMem=   134217728 cpu:               0.1 elap:               0.1
 (Enter /n/sw/g16_nehalem/g16/l401.exe)
 Initial guess from the checkpoint file:  "/scratch/dhuang9_MeCl_ts/Gau-19751.chk"
 B after Tr=     0.000000    0.000000    0.000000
         Rot=    0.999780    0.020964    0.000000    0.000002 Ang=   2.40 deg.
 Guess basis will be translated and rotated to current coordinates.
 JPrj=0 DoOrth=T DoCkMO=T.
 Leave Link  401 at Mon Nov  6 15:37:52 2017, MaxMem=   134217728 cpu:               0.1 elap:               0.1
 (Enter /n/sw/g16_nehalem/g16/l502.exe)
 Keep J ints in memory in canonical form, NReq=859737.
 FoFCou: FMM=F IPFlag=           0 FMFlag=           0 FMFlg1=           0
         NFxFlg=           0 DoJE=F BraDBF=F KetDBF=F FulRan=T
         wScrn=  0.000000 ICntrl=       600 IOpCl=  2 I1Cent=           0 NGrid=           0
         NMat0=    1 NMatS0=     33 NMatT0=    0 NMatD0=    1 NMtDS0=    0 NMtDT0=    0
 Symmetry not used in FoFCou.
 Two-electron integral symmetry not used.
 Closed shell SCF:
 Using DIIS extrapolation, IDIIS=  1040.
 Overlap will be assumed to be unity.
 NGot=   134217728 LenX=   134156814 LenY=   134155932
 Requested convergence on RMS density matrix=1.00D-08 within 128 cycles.
 Requested convergence on MAX density matrix=1.00D-06.
 Requested convergence on             energy=1.00D-06.
 No special actions if energy rises.

 Cycle   1  Pass 1  IDiag  1:
 E=-0.890189408318633E-01
 DIIS: error= 2.62D-03 at cycle   1 NSaved=   1.
 NSaved= 1 IEnMin= 1 EnMin=-0.890189408318633E-01 IErMin= 1 ErrMin= 2.62D-03
 ErrMax= 2.62D-03  0.00D+00 EMaxC= 1.00D-01 BMatC= 8.22D-05 BMatP= 8.22D-05
 IDIUse=3 WtCom= 9.74D-01 WtEn= 2.62D-02
 Coeff-Com:  0.100D+01
 Coeff-En:   0.100D+01
 Coeff:      0.100D+01
 GapD=    2.000 DampG=2.000 DampE=1.000 DampFc=2.0000 IDamp=-1.
 RMSDP=1.57D-03 MaxDP=7.60D-03              OVMax= 0.00D+00

 Cycle   2  Pass 1  IDiag  3:
 E=-0.893958712788816E-01 Delta-E=       -0.000376930447 Rises=F Damp=F
 DIIS: error= 7.84D-04 at cycle   2 NSaved=   2.
 NSaved= 2 IEnMin= 2 EnMin=-0.893958712788816E-01 IErMin= 2 ErrMin= 7.84D-04
 ErrMax= 7.84D-04  0.00D+00 EMaxC= 1.00D-01 BMatC= 1.13D-05 BMatP= 8.22D-05
 IDIUse=3 WtCom= 9.92D-01 WtEn= 7.84D-03
 Coeff-Com: -0.457D+00 0.146D+01
 Coeff-En:   0.000D+00 0.100D+01
 Coeff:     -0.454D+00 0.145D+01
 Gap=     0.370 Goal=   None    Shift=    0.000
 RMSDP=8.96D-04 MaxDP=4.15D-03 DE=-3.77D-04 OVMax= 7.15D-03

 Cycle   3  Pass 1  IDiag  3:
 E=-0.894667378377250E-01 Delta-E=       -0.000070866559 Rises=F Damp=F
 DIIS: error= 1.31D-04 at cycle   3 NSaved=   3.
 NSaved= 3 IEnMin= 3 EnMin=-0.894667378377250E-01 IErMin= 3 ErrMin= 1.31D-04
 ErrMax= 1.31D-04  0.00D+00 EMaxC= 1.00D-01 BMatC= 4.50D-07 BMatP= 1.13D-05
 IDIUse=3 WtCom= 9.99D-01 WtEn= 1.31D-03
 Coeff-Com:  0.167D+00-0.662D+00 0.150D+01
 Coeff-En:   0.000D+00 0.000D+00 0.100D+01
 Coeff:      0.167D+00-0.661D+00 0.149D+01
 Gap=     0.370 Goal=   None    Shift=    0.000
 RMSDP=2.00D-04 MaxDP=8.09D-04 DE=-7.09D-05 OVMax= 1.64D-03

 Cycle   4  Pass 1  IDiag  3:
 E=-0.894694658970820E-01 Delta-E=       -0.000002728059 Rises=F Damp=F
 DIIS: error= 5.69D-06 at cycle   4 NSaved=   4.
 NSaved= 4 IEnMin= 4 EnMin=-0.894694658970820E-01 IErMin= 4 ErrMin= 5.69D-06
 ErrMax= 5.69D-06  0.00D+00 EMaxC= 1.00D-01 BMatC= 1.29D-09 BMatP= 4.50D-07
 IDIUse=1 WtCom= 1.00D+00 WtEn= 0.00D+00
 Coeff-Com: -0.810D-01 0.322D+00-0.731D+00 0.149D+01
 Coeff:     -0.810D-01 0.322D+00-0.731D+00 0.149D+01
 Gap=     0.370 Goal=   None    Shift=    0.000
 RMSDP=8.15D-06 MaxDP=2.28D-05 DE=-2.73D-06 OVMax= 3.24D-05

 Cycle   5  Pass 1  IDiag  3:
 E=-0.894694733686237E-01 Delta-E=       -0.000000007472 Rises=F Damp=F
 DIIS: error= 1.92D-06 at cycle   5 NSaved=   5.
 NSaved= 5 IEnMin= 5 EnMin=-0.894694733686237E-01 IErMin= 5 ErrMin= 1.92D-06
 ErrMax= 1.92D-06  0.00D+00 EMaxC= 1.00D-01 BMatC= 1.10D-10 BMatP= 1.29D-09
 IDIUse=1 WtCom= 1.00D+00 WtEn= 0.00D+00
 Coeff-Com:  0.344D-01-0.137D+00 0.312D+00-0.786D+00 0.158D+01
 Coeff:      0.344D-01-0.137D+00 0.312D+00-0.786D+00 0.158D+01
 Gap=     0.370 Goal=   None    Shift=    0.000
 RMSDP=3.24D-06 MaxDP=1.42D-05 DE=-7.47D-09 OVMax= 1.61D-05

 Cycle   6  Pass 1  IDiag  3:
 E=-0.894694741721906E-01 Delta-E=       -0.000000000804 Rises=F Damp=F
 DIIS: error= 4.96D-07 at cycle   6 NSaved=   6.
 NSaved= 6 IEnMin= 6 EnMin=-0.894694741721906E-01 IErMin= 6 ErrMin= 4.96D-07
 ErrMax= 4.96D-07  0.00D+00 EMaxC= 1.00D-01 BMatC= 4.68D-12 BMatP= 1.10D-10
 IDIUse=1 WtCom= 1.00D+00 WtEn= 0.00D+00
 Coeff-Com: -0.866D-02 0.346D-01-0.793D-01 0.242D+00-0.638D+00 0.145D+01
 Coeff:     -0.866D-02 0.346D-01-0.793D-01 0.242D+00-0.638D+00 0.145D+01
 Gap=     0.370 Goal=   None    Shift=    0.000
 RMSDP=7.07D-07 MaxDP=4.19D-06 DE=-8.04D-10 OVMax= 5.34D-06

 Cycle   7  Pass 1  IDiag  3:
 E=-0.894694742085846E-01 Delta-E=       -0.000000000036 Rises=F Damp=F
 DIIS: error= 1.27D-07 at cycle   7 NSaved=   7.
 NSaved= 7 IEnMin= 7 EnMin=-0.894694742085846E-01 IErMin= 7 ErrMin= 1.27D-07
 ErrMax= 1.27D-07  0.00D+00 EMaxC= 1.00D-01 BMatC= 1.91D-13 BMatP= 4.68D-12
 IDIUse=1 WtCom= 1.00D+00 WtEn= 0.00D+00
 Coeff-Com:  0.605D-03-0.248D-02 0.575D-02-0.281D-01 0.958D-01-0.389D+00
 Coeff-Com:  0.132D+01
 Coeff:      0.605D-03-0.248D-02 0.575D-02-0.281D-01 0.958D-01-0.389D+00
 Coeff:      0.132D+01
 Gap=     0.370 Goal=   None    Shift=    0.000
 RMSDP=1.51D-07 MaxDP=1.07D-06 DE=-3.64D-11 OVMax= 1.41D-06

 Cycle   8  Pass 1  IDiag  3:
 E=-0.894694742102047E-01 Delta-E=       -0.000000000002 Rises=F Damp=F
 DIIS: error= 2.83D-08 at cycle   8 NSaved=   8.
 NSaved= 8 IEnMin= 8 EnMin=-0.894694742102047E-01 IErMin= 8 ErrMin= 2.83D-08
 ErrMax= 2.83D-08  0.00D+00 EMaxC= 1.00D-01 BMatC= 1.30D-14 BMatP= 1.91D-13
 IDIUse=1 WtCom= 1.00D+00 WtEn= 0.00D+00
 Coeff-Com:  0.554D-04-0.193D-03 0.405D-03 0.383D-02-0.201D-01 0.127D+00
 Coeff-Com: -0.668D+00 0.156D+01
 Coeff:      0.554D-04-0.193D-03 0.405D-03 0.383D-02-0.201D-01 0.127D+00
 Coeff:     -0.668D+00 0.156D+01
 Gap=     0.370 Goal=   None    Shift=    0.000
 RMSDP=4.38D-08 MaxDP=2.81D-07 DE=-1.62D-12 OVMax= 4.16D-07

 Cycle   9  Pass 1  IDiag  3:
 E=-0.894694742103752E-01 Delta-E=        0.000000000000 Rises=F Damp=F
 DIIS: error= 6.71D-09 at cycle   9 NSaved=   9.
 NSaved= 9 IEnMin= 9 EnMin=-0.894694742103752E-01 IErMin= 9 ErrMin= 6.71D-09
 ErrMax= 6.71D-09  0.00D+00 EMaxC= 1.00D-01 BMatC= 5.72D-16 BMatP= 1.30D-14
 IDIUse=1 WtCom= 1.00D+00 WtEn= 0.00D+00
 Coeff-Com: -0.810D-05 0.144D-04-0.121D-04-0.297D-02 0.138D-01-0.820D-01
 Coeff-Com:  0.435D+00-0.110D+01 0.174D+01
 Coeff:     -0.810D-05 0.144D-04-0.121D-04-0.297D-02 0.138D-01-0.820D-01
 Coeff:      0.435D+00-0.110D+01 0.174D+01
 Gap=     0.370 Goal=   None    Shift=    0.000
 RMSDP=9.25D-09 MaxDP=5.98D-08 DE=-1.71D-13 OVMax= 6.23D-08

 Cycle  10  Pass 2  IDiag  1:
 SCF Done:  E(RAM1) = -0.894694742104E-01 A.U. after   10 cycles
            NFock=  9  Conv=0.93D-08     -V/T= 0.9984
 KE=-5.739473984569D+01 PE=-6.387256969246D+01 EE= 5.558163865825D+01
 Leave Link  502 at Mon Nov  6 15:37:53 2017, MaxMem=   134217728 cpu:               0.1 elap:               0.1
 (Enter /n/sw/g16_nehalem/g16/l701.exe)
 ... and contract with generalized density number  0.
 Compute integral first derivatives.
 Leave Link  701 at Mon Nov  6 15:37:53 2017, MaxMem=   134217728 cpu:               0.1 elap:               0.1
 (Enter /n/sw/g16_nehalem/g16/l702.exe)
 L702 exits ... SP integral derivatives will be done elsewhere.
 Leave Link  702 at Mon Nov  6 15:37:53 2017, MaxMem=   134217728 cpu:               0.1 elap:               0.1
 (Enter /n/sw/g16_nehalem/g16/l703.exe)
 Integral derivatives from FoFJK, PRISM(SPDF).
 Compute integral first derivatives, UseDBF=F ICtDFT=           0.
 Calling FoFJK, ICntrl=      2127 FMM=F ISym2X=0 I1Cent= 0 IOpClX= 0 NMat=1 NMatS=1 NMatT=0.
 FoFJK:  IHMeth= 8 ICntrl=    2127 DoSepK=F KAlg= 0 I1Cent=           0 FoldK=F
 IRaf=         0 NMat=       1 IRICut=       1 DoRegI=T DoRafI=F ISym2E= 0 IDoP0=3 IntGTp=3.
 FoFCou: FMM=F IPFlag=           0 FMFlag=      100000 FMFlg1=         800
         NFxFlg=           0 DoJE=F BraDBF=F KetDBF=F FulRan=T
         wScrn=  0.000000 ICntrl=      2127 IOpCl=  0 I1Cent=           0 NGrid=           0
         NMat0=    1 NMatS0=      1 NMatT0=    0 NMatD0=    1 NMtDS0=    0 NMtDT0=    0
 Symmetry not used in FoFCou.
 Leave Link  703 at Mon Nov  6 15:37:53 2017, MaxMem=   134217728 cpu:               0.0 elap:               0.1
 (Enter /n/sw/g16_nehalem/g16/l716.exe)
 Dipole        =-1.38847948D-03 1.18655951D-05 2.65714468D-07
 ***** Axes restored to original set *****
 -------------------------------------------------------------------
 Center     Atomic                   Forces (Hartrees/Bohr)
 Number     Number              X              Y              Z
 -------------------------------------------------------------------
      1        6          -0.000017019    0.000001233   -0.000000047
      2        1          -0.000021777    0.000021982    0.000037840
      3        1          -0.000021865    0.000021005   -0.000038396
      4        1          -0.000023930   -0.000043695    0.000000626
      5       17           0.000091716    0.000000273    0.000000000
      6       17          -0.000007126   -0.000000798   -0.000000024
 -------------------------------------------------------------------
 Cartesian Forces:  Max     0.000091716 RMS     0.000029833
 Leave Link  716 at Mon Nov  6 15:37:53 2017, MaxMem=   134217728 cpu:               0.1 elap:               0.1
 (Enter /n/sw/g16_nehalem/g16/l103.exe)

 GradGradGradGradGradGradGradGradGradGradGradGradGradGradGradGradGradGrad
 Berny optimization.
 FormGI is forming the generalized inverse of G from B-inverse, IUseBI=4.
 Internal  Forces:  Max     0.000091716 RMS     0.000025791
 Search for a saddle point.
 Step number   2 out of a maximum of   33
 All quantities printed in internal units (Hartrees-Bohrs-Radians)
 Swapping is turned off.
 Update second derivatives using D2CorX and points    1    2
 ITU=  0  0
     Eigenvalues ---   -0.01843   0.02732   0.02733   0.05486   0.05488
     Eigenvalues ---    0.07780   0.08280   0.08281   0.09577   0.34634
     Eigenvalues ---    0.34641   0.38387
 Eigenvectors required to have negative eigenvalues:
                          D1        R5        R4        A8        A7
   1                   -0.54773   0.52735  -0.52142   0.15823  -0.15814
                          A4        A9        A6        A3        A1
   1                   -0.15812  -0.15808   0.15806   0.15805   0.00220
 RFO step:  Lambda0=2.575812246D-08 Lambda=-1.13501495D-07.
 Linear search not attempted -- option 19 set.
 Iteration  1 RMS(Cart)=  0.00020404 RMS(Int)=  0.00000008
 Iteration  2 RMS(Cart)=  0.00000004 RMS(Int)=  0.00000007
 ITry= 1 IFail=0 DXMaxC= 6.72D-04 DCOld= 1.00D+10 DXMaxT= 3.00D-01 DXLimC= 3.00D+00 Rises=F
 Variable       Old X    -DE/DX   Delta X   Delta X   Delta X     New X
                                 (Linear)    (Quad)   (Total)
    R1        2.07336   0.00004   0.00000   0.00010   0.00010   2.07346
    R2        2.07336   0.00004   0.00000   0.00010   0.00010   2.07346
    R3        2.07335   0.00004   0.00000   0.00010   0.00010   2.07346
    R4        4.07093   0.00009   0.00000   0.00025   0.00025   4.07118
    R5        4.07046   0.00001   0.00000   0.00072   0.00072   4.07118
    A1        2.09439   0.00000   0.00000   0.00000   0.00000   2.09439
    A2        2.09440   0.00000   0.00000   0.00000   0.00000   2.09440
    A3        1.57047   0.00001   0.00000   0.00032   0.00032   1.57079
    A4        1.57112  -0.00001   0.00000  -0.00031  -0.00031   1.57081
    A5        2.09440   0.00000   0.00000   0.00000   0.00000   2.09440
    A6        1.57046   0.00001   0.00000   0.00032   0.00032   1.57079
    A7        1.57112  -0.00001   0.00000  -0.00032  -0.00032   1.57081
    A8        1.57045   0.00001   0.00000   0.00034   0.00034   1.57079
    A9        1.57116  -0.00001   0.00000  -0.00035  -0.00035   1.57081
   A10        3.14159   0.00000   0.00000   0.00001   0.00001   3.14159
   A11        3.14158   0.00000   0.00000   0.00001   0.00001   3.14159
    D1       -3.14042  -0.00003   0.00000  -0.00114  -0.00114  -3.14156
    D2       -2.09439   0.00000   0.00000   0.00000   0.00000  -2.09439
    D3        2.09439   0.00000   0.00000   0.00000   0.00000   2.09439
    D4        2.09440   0.00000   0.00000   0.00000   0.00000   2.09440
    D5       -2.09440   0.00000   0.00000   0.00000   0.00000  -2.09440
    D6       -2.09440   0.00000   0.00000   0.00000   0.00000  -2.09440
    D7        2.09440   0.00000   0.00000   0.00000   0.00000   2.09440
         Item               Value     Threshold  Converged?
 Maximum Force            0.000092     0.000450     YES
 RMS     Force            0.000026     0.000300     YES
 Maximum Displacement     0.000672     0.001800     YES
 RMS     Displacement     0.000204     0.001200     YES
 Predicted change in Energy=-4.387136D-08
 Optimization completed.
    -- Stationary point found.
                           ----------------------------
                           !   Optimized Parameters   !
                           ! (Angstroms and Degrees)  !
 --------------------------                            --------------------------
 ! Name  Definition              Value          Derivative Info.                !
 --------------------------------------------------------------------------------
 ! R1    R(1,2)                  1.0972         -DE/DX =    0.0                 !
 ! R2    R(1,3)                  1.0972         -DE/DX =    0.0                 !
 ! R3    R(1,4)                  1.0972         -DE/DX =    0.0                 !
 ! R4    R(1,5)                  2.1542         -DE/DX =    0.0001              !
 ! R5    R(1,6)                  2.154          -DE/DX =    0.0                 !
 ! A1    A(2,1,3)              119.9996         -DE/DX =    0.0                 !
 ! A2    A(2,1,4)              120.0002         -DE/DX =    0.0                 !
 ! A3    A(2,1,5)               89.981          -DE/DX =    0.0                 !
 ! A4    A(2,1,6)               90.0186         -DE/DX =    0.0                 !
 ! A5    A(3,1,4)              120.0001         -DE/DX =    0.0                 !
 ! A6    A(3,1,5)               89.981          -DE/DX =    0.0                 !
 ! A7    A(3,1,6)               90.0187         -DE/DX =    0.0                 !
 ! A8    A(4,1,5)               89.9799         -DE/DX =    0.0                 !
 ! A9    A(4,1,6)               90.0207         -DE/DX =    0.0                 !
 ! A10   L(5,1,6,2,-1)         179.9997         -DE/DX =    0.0                 !
 ! A11   L(5,1,6,2,-2)         179.9995         -DE/DX =    0.0                 !
 ! D1    D(2,1,4,3)           -179.933          -DE/DX =    0.0                 !
 ! D2    D(2,1,5,3)           -119.9996         -DE/DX =    0.0                 !
 ! D3    D(2,1,6,3)            119.9996         -DE/DX =    0.0                 !
 ! D4    D(2,1,5,4)            120.0002         -DE/DX =    0.0                 !
 ! D5    D(2,1,6,4)           -120.0002         -DE/DX =    0.0                 !
 ! D6    D(3,1,5,4)           -120.0001         -DE/DX =    0.0                 !
 ! D7    D(3,1,6,4)            120.0001         -DE/DX =    0.0                 !
 --------------------------------------------------------------------------------
 Largest change from initial coordinates is atom    3       0.007 Angstoms.
 GradGradGradGradGradGradGradGradGradGradGradGradGradGradGradGradGradGrad

 Leave Link  103 at Mon Nov  6 15:37:53 2017, MaxMem=   134217728 cpu:               0.0 elap:               0.0
 (Enter /n/sw/g16_nehalem/g16/l202.exe)
                          Input orientation:                          
 ---------------------------------------------------------------------
 Center     Atomic      Atomic             Coordinates (Angstroms)
 Number     Number       Type             X           Y           Z
 ---------------------------------------------------------------------
      1          6           0        0.000828    0.000330    0.000012
      2          1           0        0.001210    0.561539    0.942791
      3          1           0        0.001204    0.536203   -0.957395
      4          1           0        0.001183   -1.096744    0.014639
      5         17           0        2.155071    0.000271    0.000006
      6         17           0       -2.153167    0.000412    0.000019
 ---------------------------------------------------------------------
                    Distance matrix (angstroms):
                    1          2          3          4          5
     1  C    0.000000
     2  H    1.097172   0.000000
     3  H    1.097172   1.900355   0.000000
     4  H    1.097172   1.900360   1.900359   0.000000
     5  Cl   2.154242   2.417226   2.417226   2.417207   0.000000
     6  Cl   2.153996   2.417648   2.417650   2.417683   4.308238
                    6
     6  Cl   0.000000
 Stoichiometry    CH3Cl2(1-)
 Framework group  C1[X(CH3Cl2)]
 Deg. of freedom    12
 Full point group                 C1      NOp   1
 RotChk:  IX=0 Diff= 1.58D-11
 Largest Abelian subgroup         C1      NOp   1
 Largest concise Abelian subgroup C1      NOp   1
                         Standard orientation:                         
 ---------------------------------------------------------------------
 Center     Atomic      Atomic             Coordinates (Angstroms)
 Number     Number       Type             X           Y           Z
 ---------------------------------------------------------------------
      1          6           0       -0.000123    0.000009    0.000000
      2          1           0        0.000237   -0.600227   -0.918425
      3          1           0        0.000238   -0.495258    0.979029
      4          1           0        0.000267    1.095506   -0.060603
      5         17           0        2.154119   -0.000003    0.000000
      6         17           0       -2.154119   -0.000002    0.000000
 ---------------------------------------------------------------------
 Rotational constants (GHZ):         138.8548858           1.5485952           1.5485951
 Leave Link  202 at Mon Nov  6 15:37:53 2017, MaxMem=   134217728 cpu:               0.0 elap:               0.0
 (Enter /n/sw/g16_nehalem/g16/l601.exe)
 Copying SCF densities to generalized density rwf, IOpCl= 0 IROHF=0.

 **********************************************************************

            Population analysis using the SCF density.

 **********************************************************************

 Orbital symmetries:
       Occupied  (A) (A) (A) (A) (A) (A) (A) (A) (A) (A) (A)
       Virtual   (A) (A) (A) (A)
 The electronic state is 1-A.
 Alpha  occ. eigenvalues --   -1.06464  -1.05471  -0.87412  -0.37620  -0.37620
 Alpha  occ. eigenvalues --   -0.30672  -0.21546  -0.21546  -0.20322  -0.20322
 Alpha  occ. eigenvalues --   -0.16208
 Alpha virt. eigenvalues --    0.20821   0.31008   0.32681   0.32681
          Condensed to atoms (all electrons):
               1          2          3          4          5          6
     1  C    3.895068   0.000000   0.000000   0.000000   0.000000   0.000000
     2  H    0.000000   0.894349   0.000000   0.000000   0.000000   0.000000
     3  H    0.000000   0.000000   0.894349   0.000000   0.000000   0.000000
     4  H    0.000000   0.000000   0.000000   0.894349   0.000000   0.000000
     5  Cl   0.000000   0.000000   0.000000   0.000000   7.711135   0.000000
     6  Cl   0.000000   0.000000   0.000000   0.000000   0.000000   7.710751
 Mulliken charges:
               1
     1  C    0.104932
     2  H    0.105651
     3  H    0.105651
     4  H    0.105651
     5  Cl  -0.711135
     6  Cl  -0.710751
 Sum of Mulliken charges =  -1.00000
 Mulliken charges with hydrogens summed into heavy atoms:
               1
     1  C    0.421886
     5  Cl  -0.711135
     6  Cl  -0.710751
 Charge=             -1.0000 electrons
 Dipole moment (field-independent basis, Debye):
    X=             -0.0035    Y=              0.0000    Z=              0.0000  Tot=              0.0035
 N-N= 6.559620140570D+01 E-N=-6.387256967458D+01  KE=-5.739473984569D+01
 Leave Link  601 at Mon Nov  6 15:37:53 2017, MaxMem=   134217728 cpu:               0.1 elap:               0.1
 (Enter /n/sw/g16_nehalem/g16/l9999.exe)
 1\1\GINC-HOLY2A16208\FTS\RAM1\ZDO\C1H3Cl2(1-)\ROOT\06-Nov-2017\0\\#p o
 pt=(ts,noeigentest,calcfc) freq=noraman am1\\MeCl ts\\-1,1\C,0.0008284
 546,0.0003304924,0.0000120808\H,0.0012098583,0.5615390655,0.9427910404
 \H,0.0012044181,0.5362027981,-0.9573949163\H,0.0011828787,-1.096743990
 1,0.0146393662\Cl,2.1550707243,0.0002714656,0.0000060889\Cl,-2.1531673
 341,0.0004121685,0.00001934\\Version=ES64L-G16RevA.03\State=1-A\HF=-0.
 0894695\RMSD=9.251e-09\RMSF=2.983e-05\Dipole=-0.0013885,-0.0000118,-0.
 0000008\PG=C01 [X(C1H3Cl2)]\\@


 TRUTH, IN SCIENCE, CAN BE DEFINED AS THE WORKING HYPOTHESIS 
 BEST FITTED TO OPEN THE WAY TO THE NEXT BETTER ONE.

                              -- KONRAD LORENZ
 Leave Link 9999 at Mon Nov  6 15:37:53 2017, MaxMem=   134217728 cpu:               0.1 elap:               0.1
 Job cpu time:       0 days  0 hours  0 minutes  2.6 seconds.
 Elapsed time:       0 days  0 hours  0 minutes  2.4 seconds.
 File lengths (MBytes):  RWF=      6 Int=      0 D2E=      0 Chk=      2 Scr=      1
 Normal termination of Gaussian 16 at Mon Nov  6 15:37:53 2017.
 (Enter /n/sw/g16_nehalem/g16/l1.exe)
 Link1:  Proceeding to internal job step number  2.
 -------------------------------------------------------------
 #P Geom=AllCheck Guess=TCheck SCRF=Check GenChk RAM1/ZDO Freq
 -------------------------------------------------------------
 1/5=1,10=4,11=1,29=7,30=1,38=1,40=1/1,3;
 2/12=2,40=1/2;
 3/5=2,14=-4,25=1,41=700000,70=2,71=2,116=1,135=40,140=1/1,2,3;
 4/5=101,35=1/1;
 5/5=2,35=1,38=6,98=1/2;
 8/6=4,10=90,11=11/1;
 11/6=1,8=1,9=11,15=111,16=1/1,2,10;
 10/6=1/2;
 6/7=2,8=2,9=2,10=2,28=1/1;
 7/8=1,10=1,25=1/1,2,3,16;
 1/5=1,10=4,11=1,30=1/3;
 99//99;
 Leave Link    1 at Mon Nov  6 15:37:53 2017, MaxMem=   134217728 cpu:               0.0 elap:               0.0
 (Enter /n/sw/g16_nehalem/g16/l101.exe)
 Structure from the checkpoint file:  "/scratch/dhuang9_MeCl_ts/Gau-19751.chk"
 -------
 MeCl ts
 -------
 Charge = -1 Multiplicity = 1
 Redundant internal coordinates found in file.  (old form).
 C,0,0.0008284546,0.0003304924,0.0000120808
 H,0,0.0012098583,0.5615390655,0.9427910404
 H,0,0.0012044181,0.5362027981,-0.9573949163
 H,0,0.0011828787,-1.0967439901,0.0146393662
 Cl,0,2.1550707243,0.0002714656,0.0000060889
 Cl,0,-2.1531673341,0.0004121685,0.00001934
 Recover connectivity data from disk.
 ITRead=  0  0  0  0  0  0
 MicOpt= -1 -1 -1 -1 -1 -1
 NAtoms=      6 NQM=        6 NQMF=       0 NMMI=      0 NMMIF=      0
                NMic=       0 NMicF=      0.
                    Isotopes and Nuclear Properties:
 (Nuclear quadrupole moments (NQMom) in fm**2, nuclear magnetic moments (NMagM)
  in nuclear magnetons)

  Atom         1           2           3           4           5           6
 IAtWgt=          12           1           1           1          35          35
 AtmWgt=  12.0000000   1.0078250   1.0078250   1.0078250  34.9688527  34.9688527
 NucSpn=           0           1           1           1           3           3
 AtZEff=   3.9000000   1.0000000   1.0000000   1.0000000 204.0000000 204.0000000
 NQMom=    0.0000000   0.0000000   0.0000000   0.0000000  -8.1650000  -8.1650000
 NMagM=    0.0000000   2.7928460   2.7928460   2.7928460   0.8218740   0.8218740
 AtZNuc=   6.0000000   1.0000000   1.0000000   1.0000000  17.0000000  17.0000000
 Leave Link  101 at Mon Nov  6 15:37:53 2017, MaxMem=   134217728 cpu:               0.3 elap:               0.3
 (Enter /n/sw/g16_nehalem/g16/l103.exe)

 GradGradGradGradGradGradGradGradGradGradGradGradGradGradGradGradGradGrad
 Berny optimization.
 Initialization pass.
                           ----------------------------
                           !    Initial Parameters    !
                           ! (Angstroms and Degrees)  !
 --------------------------                            --------------------------
 ! Name  Definition              Value          Derivative Info.                !
 --------------------------------------------------------------------------------
 ! R1    R(1,2)                  1.0972         calculate D2E/DX2 analytically  !
 ! R2    R(1,3)                  1.0972         calculate D2E/DX2 analytically  !
 ! R3    R(1,4)                  1.0972         calculate D2E/DX2 analytically  !
 ! R4    R(1,5)                  2.1542         calculate D2E/DX2 analytically  !
 ! R5    R(1,6)                  2.154          calculate D2E/DX2 analytically  !
 ! A1    A(2,1,3)              119.9996         calculate D2E/DX2 analytically  !
 ! A2    A(2,1,4)              120.0002         calculate D2E/DX2 analytically  !
 ! A3    A(2,1,5)               89.981          calculate D2E/DX2 analytically  !
 ! A4    A(2,1,6)               90.0186         calculate D2E/DX2 analytically  !
 ! A5    A(3,1,4)              120.0001         calculate D2E/DX2 analytically  !
 ! A6    A(3,1,5)               89.981          calculate D2E/DX2 analytically  !
 ! A7    A(3,1,6)               90.0187         calculate D2E/DX2 analytically  !
 ! A8    A(4,1,5)               89.9799         calculate D2E/DX2 analytically  !
 ! A9    A(4,1,6)               90.0207         calculate D2E/DX2 analytically  !
 ! A10   L(5,1,6,2,-1)         179.9997         calculate D2E/DX2 analytically  !
 ! A11   L(5,1,6,2,-2)         179.9995         calculate D2E/DX2 analytically  !
 ! D1    D(2,1,4,3)           -179.933          calculate D2E/DX2 analytically  !
 ! D2    D(2,1,5,3)           -119.9996         calculate D2E/DX2 analytically  !
 ! D3    D(2,1,6,3)            119.9996         calculate D2E/DX2 analytically  !
 ! D4    D(2,1,5,4)            120.0002         calculate D2E/DX2 analytically  !
 ! D5    D(2,1,6,4)           -120.0002         calculate D2E/DX2 analytically  !
 ! D6    D(3,1,5,4)           -120.0001         calculate D2E/DX2 analytically  !
 ! D7    D(3,1,6,4)            120.0001         calculate D2E/DX2 analytically  !
 --------------------------------------------------------------------------------
 Trust Radius=3.00D-01 FncErr=1.00D-07 GrdErr=1.00D-07 EigMax=2.50D+02 EigMin=1.00D-04
 Number of steps in this run=      2 maximum allowed number of steps=      2.
 Search for a saddle point of order  1.
 GradGradGradGradGradGradGradGradGradGradGradGradGradGradGradGradGradGrad

 Leave Link  103 at Mon Nov  6 15:37:53 2017, MaxMem=   134217728 cpu:               0.0 elap:               0.0
 (Enter /n/sw/g16_nehalem/g16/l202.exe)
                          Input orientation:                          
 ---------------------------------------------------------------------
 Center     Atomic      Atomic             Coordinates (Angstroms)
 Number     Number       Type             X           Y           Z
 ---------------------------------------------------------------------
      1          6           0        0.000828    0.000330    0.000012
      2          1           0        0.001210    0.561539    0.942791
      3          1           0        0.001204    0.536203   -0.957395
      4          1           0        0.001183   -1.096744    0.014639
      5         17           0        2.155071    0.000271    0.000006
      6         17           0       -2.153167    0.000412    0.000019
 ---------------------------------------------------------------------
                    Distance matrix (angstroms):
                    1          2          3          4          5
     1  C    0.000000
     2  H    1.097172   0.000000
     3  H    1.097172   1.900355   0.000000
     4  H    1.097172   1.900360   1.900359   0.000000
     5  Cl   2.154242   2.417226   2.417226   2.417207   0.000000
     6  Cl   2.153996   2.417648   2.417650   2.417683   4.308238
                    6
     6  Cl   0.000000
 Stoichiometry    CH3Cl2(1-)
 Framework group  C1[X(CH3Cl2)]
 Deg. of freedom    12
 Full point group                 C1      NOp   1
 RotChk:  IX=0 Diff= 4.05D-10
 Largest Abelian subgroup         C1      NOp   1
 Largest concise Abelian subgroup C1      NOp   1
                         Standard orientation:                         
 ---------------------------------------------------------------------
 Center     Atomic      Atomic             Coordinates (Angstroms)
 Number     Number       Type             X           Y           Z
 ---------------------------------------------------------------------
      1          6           0       -0.000123    0.000009    0.000000
      2          1           0        0.000237   -0.600227   -0.918425
      3          1           0        0.000238   -0.495258    0.979029
      4          1           0        0.000267    1.095506   -0.060603
      5         17           0        2.154119   -0.000003    0.000000
      6         17           0       -2.154119   -0.000002    0.000000
 ---------------------------------------------------------------------
 Rotational constants (GHZ):         138.8548858           1.5485952           1.5485951
 Leave Link  202 at Mon Nov  6 15:37:54 2017, MaxMem=   134217728 cpu:               0.0 elap:               0.0
 (Enter /n/sw/g16_nehalem/g16/l301.exe)
 Standard basis: VSTO-6G (5D, 7F)
 Ernie: Thresh=  0.10000D-02 Tol=  0.10000D-05 Strict=F.
  NNHCO=     0 NNPyr=     0 NCTC=     0               EPep=         0.000000000
    EC=        31.363833327  ECS=         0.473087202   EG=         0.093050827
   EHC=         0.000000000  EAt=       -33.052413022  AtH=         0.613817027
 EPDDG=         0.000000000  ECC=        31.929971356 EAtT=        33.666230050
 There are    15 symmetry adapted cartesian basis functions of A   symmetry.
 There are    15 symmetry adapted basis functions of A   symmetry.
    15 basis functions,    90 primitive gaussians,    15 cartesian basis functions
    11 alpha electrons       11 beta electrons
       nuclear repulsion energy        65.5962014057 Hartrees.
 IExCor=    0 DFT=F Ex=HF Corr=None ExCW=0 ScaHFX=  1.000000
 ScaDFX=  1.000000  1.000000  1.000000  1.000000 ScalE2=  1.000000  1.000000
 IRadAn=      5 IRanWt=     -1 IRanGd=            0 ICorTp=0 IEmpDi=  4
 Integral buffers will be    131072 words long.
 Regular integral format.
 Two-electron integral symmetry is turned off.
 Leave Link  301 at Mon Nov  6 15:37:54 2017, MaxMem=   134217728 cpu:               0.1 elap:               0.1
 (Enter /n/sw/g16_nehalem/g16/l302.exe)
 Do NDO integrals.
 NPDir=0 NMtPBC=     1 NCelOv=     1 NCel=       1 NClECP=     1 NCelD=      1
         NCelK=      1 NCelE2=     1 NClLst=     1 CellRange=     0.0.
 One-electron integrals computed using PRISM.
 NBasis=    15 RedAO= F EigKep=  0.00D+00  NBF=    15
 NBsUse=    15 1.00D-04 EigRej=  0.00D+00 NBFU=    15
 Leave Link  302 at Mon Nov  6 15:37:54 2017, MaxMem=   134217728 cpu:               0.1 elap:               0.1
 (Enter /n/sw/g16_nehalem/g16/l303.exe)
 DipDrv:  MaxL=1.
 Leave Link  303 at Mon Nov  6 15:37:54 2017, MaxMem=   134217728 cpu:               0.1 elap:               0.1
 (Enter /n/sw/g16_nehalem/g16/l401.exe)
 Initial guess from the checkpoint file:  "/scratch/dhuang9_MeCl_ts/Gau-19751.chk"
 B after Tr=     0.000000    0.000000    0.000000
         Rot=    1.000000    0.000000    0.000000    0.000000 Ang=   0.00 deg.
 Guess basis will be translated and rotated to current coordinates.
 JPrj=0 DoOrth=T DoCkMO=T.
 Leave Link  401 at Mon Nov  6 15:37:54 2017, MaxMem=   134217728 cpu:               0.1 elap:               0.1
 (Enter /n/sw/g16_nehalem/g16/l502.exe)
 Keep J ints in memory in canonical form, NReq=859737.
 FoFCou: FMM=F IPFlag=           0 FMFlag=           0 FMFlg1=           0
         NFxFlg=           0 DoJE=F BraDBF=F KetDBF=F FulRan=T
         wScrn=  0.000000 ICntrl=       600 IOpCl=  2 I1Cent=           0 NGrid=           0
         NMat0=    1 NMatS0=     33 NMatT0=    0 NMatD0=    1 NMtDS0=    0 NMtDT0=    0
 Symmetry not used in FoFCou.
 Two-electron integral symmetry not used.
 Closed shell SCF:
 Using DIIS extrapolation, IDIIS=  1040.
 Overlap will be assumed to be unity.
 NGot=   134217728 LenX=   134156814 LenY=   134155932
 Requested convergence on RMS density matrix=1.00D-08 within 128 cycles.
 Requested convergence on MAX density matrix=1.00D-06.
 Requested convergence on             energy=1.00D-06.
 No special actions if energy rises.

 Cycle   1  Pass 1  IDiag  1:
 E=-0.894694742103610E-01
 DIIS: error= 9.64D-10 at cycle   1 NSaved=   1.
 NSaved= 1 IEnMin= 1 EnMin=-0.894694742103610E-01 IErMin= 1 ErrMin= 9.64D-10
 ErrMax= 9.64D-10  0.00D+00 EMaxC= 1.00D-01 BMatC= 1.31D-17 BMatP= 1.31D-17
 IDIUse=1 WtCom= 1.00D+00 WtEn= 0.00D+00
 Coeff-Com:  0.100D+01
 Coeff:      0.100D+01
 RMSDP=6.90D-10 MaxDP=4.64D-09              OVMax= 0.00D+00

 Cycle   2  Pass 2  IDiag  1:
 SCF Done:  E(RAM1) = -0.894694742104E-01 A.U. after    2 cycles
[...]
      9  0.181595D-02 -0.910527D-03 -0.911735D-03 -0.785514D-02  0.785489D-02
     10 -0.537600D-02  0.268797D-02  0.268800D-02  0.113271D-04 -0.113499D-04
     11 -0.906967D-03  0.181910D-02 -0.905821D-03  0.785488D-02 -0.785432D-02
     12 -0.910517D-03  0.181596D-02 -0.911750D-03 -0.785513D-02  0.785479D-02
     13 -0.906903D-03 -0.906897D-03  0.182008D-02  0.785570D-02 -0.785382D-02
     14 -0.910622D-03 -0.910628D-03  0.181497D-02 -0.785517D-02  0.785280D-02
     15  0.363504D-02 -0.181750D-02 -0.181755D-02  0.000000D+00  0.000000D+00
     16  0.000000D+00  0.314804D-02 -0.314803D-02  0.000000D+00  0.000000D+00
     17 -0.787945D-05 -0.787939D-05 -0.606166D-05 -0.272111D-01  0.272077D-01
     18 -0.268752D-02 -0.268753D-02  0.537494D-02  0.408997D-05 -0.413298D-05
     19  0.268856D-02  0.268856D-02 -0.537701D-02 -0.394729D-05  0.399059D-05
     20  0.268741D-02 -0.537494D-02  0.268747D-02  0.204345D-05 -0.206226D-05
     21 -0.268853D-02  0.537710D-02 -0.268850D-02 -0.198069D-05  0.199963D-05
     22  0.537493D-02 -0.268742D-02 -0.268748D-02 -0.204652D-05  0.207072D-05
     23 -0.537709D-02  0.268854D-02  0.268851D-02  0.196660D-05 -0.199096D-05
                6             7             8             9            10 
      6  0.636262D-02
      7 -0.318131D-02  0.636260D-02
      8  0.390146D-03  0.394363D-03  0.367486D-01
      9  0.377098D-03  0.372780D-03 -0.213158D-01  0.367620D-01
     10 -0.318131D-02 -0.318127D-02 -0.777900D-03 -0.756487D-03  0.636260D-02
     11  0.390147D-03 -0.777899D-03 -0.155502D-01  0.783379D-02  0.394361D-03
     12  0.377135D-03 -0.756510D-03  0.783380D-02 -0.155568D-01  0.372766D-03
     13 -0.781351D-03  0.393971D-03 -0.155503D-01  0.783362D-02  0.393989D-03
     14 -0.753110D-03  0.373265D-03  0.783393D-02 -0.155568D-01  0.373236D-03
     15  0.767245D-03  0.767142D-03  0.154328D-01  0.154461D-01 -0.153439D-02
     16  0.132887D-02 -0.132884D-02  0.000000D+00  0.000000D+00  0.000000D+00
     17 -0.315274D-05 -0.986395D-05 -0.652210D-02  0.652192D-02 -0.987724D-05
     18 -0.636218D-02  0.318109D-02 -0.377969D-03 -0.384843D-03  0.318109D-02
     19  0.636305D-02 -0.318153D-02  0.382514D-03  0.389106D-03 -0.318153D-02
     20 -0.318109D-02  0.636213D-02  0.381560D-03  0.380900D-03 -0.318104D-02
     21  0.318152D-02 -0.636304D-02 -0.386051D-03 -0.385919D-03  0.318151D-02
     22  0.318109D-02  0.318104D-02  0.759529D-03  0.765742D-03 -0.636213D-02
     23 -0.318153D-02 -0.318151D-02 -0.768565D-03 -0.775025D-03  0.636304D-02
               11            12            13            14            15 
     11  0.367486D-01
     12 -0.213158D-01  0.367620D-01
     13 -0.155503D-01  0.783361D-02  0.367488D-01
     14  0.783392D-02 -0.155567D-01 -0.213156D-01  0.367612D-01
     15 -0.771638D-02 -0.772296D-02 -0.771665D-02 -0.772283D-02  0.308789D-01
     16  0.133652D-01  0.133768D-01 -0.133655D-01 -0.133762D-01  0.000000D+00
     17 -0.652210D-02  0.652192D-02 -0.652183D-02  0.652218D-02  0.000000D+00
     18 -0.377984D-03 -0.384871D-03  0.763496D-03  0.762105D-03 -0.762811D-03
     19  0.382544D-03  0.389090D-03 -0.772499D-03 -0.770689D-03  0.771620D-03
     20 -0.759541D-03 -0.765759D-03  0.381747D-03  0.381062D-03  0.762459D-03
     21  0.768588D-03  0.775001D-03 -0.386258D-03 -0.385330D-03 -0.771970D-03
     22 -0.381556D-03 -0.380887D-03 -0.381749D-03 -0.381043D-03  0.152527D-02
     23  0.386043D-03  0.385911D-03  0.386241D-03  0.385359D-03 -0.154359D-02
               16            17            18            19            20 
     16  0.308788D-01
     17  0.000000D+00  0.225930D-01
     18 -0.132120D-02 -0.433605D-05  0.636174D-02
     19  0.133642D-02  0.421714D-05 -0.636261D-02  0.636349D-02
     20 -0.132102D-02 -0.216415D-05  0.318087D-02 -0.318131D-02  0.636168D-02
     21  0.133665D-02  0.211182D-05 -0.318131D-02  0.318174D-02 -0.636259D-02
     22  0.000000D+00  0.217190D-05 -0.318087D-02  0.318131D-02  0.318081D-02
     23  0.000000D+00 -0.210531D-05  0.318131D-02 -0.318175D-02 -0.318128D-02
               21            22            23 
     21  0.636350D-02
     22 -0.318128D-02  0.636168D-02
     23  0.318176D-02 -0.636259D-02  0.636350D-02
 Leave Link  716 at Mon Nov  6 15:37:55 2017, MaxMem=   134217728 cpu:               0.1 elap:               0.1
 (Enter /n/sw/g16_nehalem/g16/l103.exe)

 GradGradGradGradGradGradGradGradGradGradGradGradGradGradGradGradGradGrad
 Berny optimization.
 Red2BG is reusing G-inverse.
 Internal  Forces:  Max     0.000091716 RMS     0.000025791
 Search for a saddle point.
 Step number   1 out of a maximum of    2
 All quantities printed in internal units (Hartrees-Bohrs-Radians)
 Swapping is turned off.
 Second derivative matrix not updated -- analytic derivatives used.
 ITU=  0
     Eigenvalues ---   -0.01875   0.02740   0.02740   0.05453   0.05453
     Eigenvalues ---    0.07609   0.08146   0.08146   0.09321   0.34690
     Eigenvalues ---    0.34690   0.38454
 Eigenvectors required to have negative eigenvalues:
                          D1        R5        R4        A4        A7
   1                   -0.54464   0.52687  -0.52674  -0.15723  -0.15723
                          A8        A3        A6        A9        A1
   1                    0.15723   0.15722   0.15722  -0.15722   0.00019
 Angle between quadratic step and forces=  63.40 degrees.
 Linear search not attempted -- option 19 set.
 Iteration  1 RMS(Cart)=  0.00021197 RMS(Int)=  0.00000008
 Iteration  2 RMS(Cart)=  0.00000004 RMS(Int)=  0.00000007
 ITry= 1 IFail=0 DXMaxC= 7.05D-04 DCOld= 1.00D+10 DXMaxT= 3.00D-01 DXLimC= 3.00D+00 Rises=F
 Variable       Old X    -DE/DX   Delta X   Delta X   Delta X     New X
                                 (Linear)    (Quad)   (Total)
    R1        2.07336   0.00004   0.00000   0.00010   0.00010   2.07345
    R2        2.07336   0.00004   0.00000   0.00010   0.00010   2.07345
    R3        2.07335   0.00004   0.00000   0.00010   0.00010   2.07345
    R4        4.07093   0.00009   0.00000   0.00028   0.00028   4.07120
    R5        4.07046   0.00001   0.00000   0.00074   0.00074   4.07120
    A1        2.09439   0.00000   0.00000   0.00001   0.00001   2.09440
    A2        2.09440   0.00000   0.00000   0.00000   0.00000   2.09440
    A3        1.57047   0.00001   0.00000   0.00033   0.00033   1.57080
    A4        1.57112  -0.00001   0.00000  -0.00033  -0.00033   1.57080
    A5        2.09440   0.00000   0.00000   0.00000   0.00000   2.09440
    A6        1.57046   0.00001   0.00000   0.00033   0.00033   1.57080
    A7        1.57112  -0.00001   0.00000  -0.00033  -0.00033   1.57080
    A8        1.57045   0.00001   0.00000   0.00035   0.00035   1.57080
    A9        1.57116  -0.00001   0.00000  -0.00036  -0.00036   1.57080
   A10        3.14159   0.00000   0.00000   0.00001   0.00001   3.14159
   A11        3.14158   0.00000   0.00000   0.00001   0.00001   3.14159
    D1       -3.14042  -0.00003   0.00000  -0.00117  -0.00117  -3.14159
    D2       -2.09439   0.00000   0.00000  -0.00001  -0.00001  -2.09440
    D3        2.09439   0.00000   0.00000   0.00001   0.00001   2.09440
    D4        2.09440   0.00000   0.00000   0.00000   0.00000   2.09440
    D5       -2.09440   0.00000   0.00000   0.00000   0.00000  -2.09440
    D6       -2.09440   0.00000   0.00000   0.00000   0.00000  -2.09440
    D7        2.09440   0.00000   0.00000   0.00000   0.00000   2.09440
         Item               Value     Threshold  Converged?
 Maximum Force            0.000092     0.000450     YES
 RMS     Force            0.000026     0.000300     YES
 Maximum Displacement     0.000705     0.001800     YES
 RMS     Displacement     0.000212     0.001200     YES
 Predicted change in Energy=-4.559968D-08
 Optimization completed.
    -- Stationary point found.
                           ----------------------------
                           !   Optimized Parameters   !
                           ! (Angstroms and Degrees)  !
 --------------------------                            --------------------------
 ! Name  Definition              Value          Derivative Info.                !
 --------------------------------------------------------------------------------
 ! R1    R(1,2)                  1.0972         -DE/DX =    0.0                 !
 ! R2    R(1,3)                  1.0972         -DE/DX =    0.0                 !
 ! R3    R(1,4)                  1.0972         -DE/DX =    0.0                 !
 ! R4    R(1,5)                  2.1542         -DE/DX =    0.0001              !
 ! R5    R(1,6)                  2.154          -DE/DX =    0.0                 !
 ! A1    A(2,1,3)              119.9996         -DE/DX =    0.0                 !
 ! A2    A(2,1,4)              120.0002         -DE/DX =    0.0                 !
 ! A3    A(2,1,5)               89.981          -DE/DX =    0.0                 !
 ! A4    A(2,1,6)               90.0186         -DE/DX =    0.0                 !
 ! A5    A(3,1,4)              120.0001         -DE/DX =    0.0                 !
 ! A6    A(3,1,5)               89.981          -DE/DX =    0.0                 !
 ! A7    A(3,1,6)               90.0187         -DE/DX =    0.0                 !
 ! A8    A(4,1,5)               89.9799         -DE/DX =    0.0                 !
 ! A9    A(4,1,6)               90.0207         -DE/DX =    0.0                 !
 ! A10   L(5,1,6,2,-1)         179.9997         -DE/DX =    0.0                 !
 ! A11   L(5,1,6,2,-2)         179.9995         -DE/DX =    0.0                 !
 ! D1    D(2,1,4,3)           -179.933          -DE/DX =    0.0                 !
 ! D2    D(2,1,5,3)           -119.9996         -DE/DX =    0.0                 !
 ! D3    D(2,1,6,3)            119.9996         -DE/DX =    0.0                 !
 ! D4    D(2,1,5,4)            120.0002         -DE/DX =    0.0                 !
 ! D5    D(2,1,6,4)           -120.0002         -DE/DX =    0.0                 !
 ! D6    D(3,1,5,4)           -120.0001         -DE/DX =    0.0                 !
 ! D7    D(3,1,6,4)            120.0001         -DE/DX =    0.0                 !
 --------------------------------------------------------------------------------
 GradGradGradGradGradGradGradGradGradGradGradGradGradGradGradGradGradGrad

 Leave Link  103 at Mon Nov  6 15:37:55 2017, MaxMem=   134217728 cpu:               0.0 elap:               0.0
 (Enter /n/sw/g16_nehalem/g16/l9999.exe)

 ----------------------------------------------------------------------

 Electric dipole moment (input orientation):
 (Debye = 10**-18 statcoulomb cm , SI units = C m)
                  (au)            (Debye)         (10**-30 SI)
   Tot        0.138852D-02      0.352928D-02      0.117724D-01
   x         -0.138847D-02     -0.352915D-02     -0.117720D-01
   y         -0.117958D-04     -0.299818D-04     -0.100009D-03
   z          0.000000D+00      0.000000D+00      0.000000D+00

 Dipole polarizability, Alpha (input orientation).
 (esu units = cm**3 , SI units = C**2 m**2 J**-1)
 Alpha(0;0):
               (au)            (10**-24 esu)      (10**-40 SI)
   iso        0.309794D+02      0.459067D+01      0.510780D+01
   aniso      0.673614D+02      0.998193D+01      0.111064D+02
   xx         0.758870D+02      0.112453D+02      0.125121D+02
   yx        -0.226601D-02     -0.335788D-03     -0.373614D-03
   yy         0.852558D+01      0.126336D+01      0.140568D+01
   zx        -0.208707D-03     -0.309272D-04     -0.344112D-04
   zy         0.000000D+00      0.000000D+00      0.000000D+00
   zz         0.852552D+01      0.126335D+01      0.140567D+01

 First dipole hyperpolarizability, Beta (input orientation).
 ||, _|_  parallel and perpendicular components, (z) with respect to z axis,
 vector components x,y,z.  Values do not include the 1/n! factor of 1/2.
 (esu units = statvolt**-1 cm**4 , SI units = C**3 m**3 J**-2)
 Beta(0;0,0):
               (au)            (10**-30 esu)      (10**-50 SI)
   || (z)    -0.296910D-03     -0.256507D-05     -0.952002D-06
   _|_(z)    -0.989701D-04     -0.855025D-06     -0.317334D-06
   x         -0.380070D+01     -0.328351D-01     -0.121864D-01
   y         -0.215474D-01     -0.186153D-03     -0.690889D-04
   z         -0.148455D-02     -0.128254D-04     -0.476001D-05
   ||         0.760152D+00      0.656712D-02      0.243732D-02
   xxx       -0.129635D+01     -0.111995D-01     -0.415657D-02
   xxy       -0.727244D-02     -0.628282D-04     -0.233181D-04
   yxy        0.139151D-01      0.120216D-03      0.446168D-04
   yyy       -0.250871D+02     -0.216733D+00     -0.804385D-01
   xxz       -0.461297D-03     -0.398525D-05     -0.147908D-05
   yxz        0.109664D-03      0.947414D-06      0.351623D-06
   yyz        0.100396D+01      0.867343D-02      0.321906D-02
   zxz        0.155364D-01      0.134223D-03      0.498154D-04
   zyz        0.250872D+02      0.216734D+00      0.804388D-01
   zzz       -0.100399D+01     -0.867372D-02     -0.321917D-02

 ----------------------------------------------------------------------

 Dipole orientation:
     6          0.00001678          0.00061138         -0.00157081
     1          1.77253191          1.07619414         -0.01227538
     1         -1.81776207          0.99781432         -0.00989435
     1          0.04527798         -2.07218010          0.01535628
    17         -0.00192624         -0.03410119         -4.07235025
    17          0.00196161          0.03536281          4.06874249

 Electric dipole moment (dipole orientation):
 (Debye = 10**-18 statcoulomb cm , SI units = C m)
                  (au)            (Debye)         (10**-30 SI)
   Tot        0.138852D-02      0.352928D-02      0.117724D-01
   x          0.000000D+00      0.000000D+00      0.000000D+00
   y          0.000000D+00      0.000000D+00      0.000000D+00
   z          0.138852D-02      0.352928D-02      0.117724D-01

 Dipole polarizability, Alpha (dipole orientation).
 (esu units = cm**3 , SI units = C**2 m**2 J**-1)
 Alpha(0;0):
               (au)            (10**-24 esu)      (10**-40 SI)
   iso        0.309794D+02      0.459067D+01      0.510780D+01
   aniso      0.673614D+02      0.998193D+01      0.111064D+02
   xx         0.852553D+01      0.126335D+01      0.140567D+01
   yx         0.276099D-03      0.409136D-04      0.455225D-04
   yy         0.853049D+01      0.126409D+01      0.140649D+01
   zx         0.321676D-01      0.476675D-02      0.530372D-02
   zy         0.574786D+00      0.851745D-01      0.947694D-01
   zz         0.758820D+02      0.112446D+02      0.125113D+02

 First dipole hyperpolarizability, Beta (dipole orientation).
 ||, _|_  parallel and perpendicular components, (z) with respect to z axis,
 vector components x,y,z.  Values do not include the 1/n! factor of 1/2.
 (esu units = statvolt**-1 cm**4 , SI units = C**3 m**3 J**-2)
 Beta(0;0,0):
               (au)            (10**-30 esu)      (10**-50 SI)
   || (z)     0.760149D+00      0.656710D-02      0.243731D-02
   _|_(z)     0.253383D+00      0.218903D-02      0.812438D-03
   x          0.503001D-03      0.434553D-05      0.161280D-05
   y          0.107456D-01      0.928338D-04      0.344544D-04
   z          0.380075D+01      0.328355D-01      0.121866D-01
   ||         0.760152D+00      0.656712D-02      0.243732D-02
   xxx       -0.164332D+01     -0.141970D-01     -0.526906D-02
   xxy        0.250524D+02      0.216434D+00      0.803272D-01
   yxy        0.164293D+01      0.141936D-01      0.526783D-02
   yyy       -0.250511D+02     -0.216422D+00     -0.803227D-01
   xxz       -0.227696D+00     -0.196712D-02     -0.730077D-03
   yxz       -0.259835D-01     -0.224477D-03     -0.833125D-04
   yyz        0.198203D+00      0.171232D-02      0.635511D-03
   zxz        0.553376D-03      0.478074D-05      0.177432D-05
   zyz        0.218905D-02      0.189117D-04      0.701890D-05
   zzz        0.129641D+01      0.112000D-01      0.415675D-02

 ----------------------------------------------------------------------
 1\1\GINC-HOLY2A16208\Freq\RAM1\ZDO\C1H3Cl2(1-)\ROOT\06-Nov-2017\0\\#P 
 Geom=AllCheck Guess=TCheck SCRF=Check GenChk RAM1/ZDO Freq\\MeCl ts\\-
 1,1\C,0.0008284546,0.0003304924,0.0000120808\H,0.0012098583,0.56153906
 55,0.9427910404\H,0.0012044181,0.5362027981,-0.9573949163\H,0.00118287
 87,-1.0967439901,0.0146393662\Cl,2.1550707243,0.0002714656,0.000006088
 9\Cl,-2.1531673341,0.0004121685,0.00001934\\Version=ES64L-G16RevA.03\S
 tate=1-A\HF=-0.0894695\RMSD=6.897e-10\RMSF=2.983e-05\ZeroPoint=0.03649
 02\Thermal=0.0409701\Dipole=-0.0013885,-0.0000118,-0.0000008\DipoleDer
 iv=4.4473413,-0.0001273,-0.0000128,-0.0001311,0.2180709,-0.0000001,-0.
 0000128,-0.0000001,0.2180721,-0.2516168,0.0000594,0.0000845,0.0000589,
 0.0377273,0.0249132,0.0000902,0.024913,0.064749,-0.2516162,0.0000572,-
 0.0000841,0.0000564,0.0364183,-0.0241576,-0.00009,-0.0241572,0.0660575
 ,-0.2516124,-0.0000934,0.0000022,-0.0001019,0.0795686,-0.0007557,0.000
 0022,-0.0007557,0.0229069,-2.3461914,0.0000504,0.0000049,0.0000486,-0.
 6860264,0.,0.0000047,0.,-0.6860283,-2.3463013,0.0000537,0.0000052,0.00
 0069,-0.6857577,0.,0.0000058,0.,-0.6857561\Polar=75.8869515,-0.002266,
 8.5255817,-0.0002087,0.0000021,8.5255193\HyperPolar=-1.2963515,-0.0072
 724,0.0139151,-25.087148,-0.0004613,0.0001097,1.00396,0.0155364,25.087
 2379,-1.0039936\PG=C01 [X(C1H3Cl2)]\NImag=1\\-0.08402775,0.00001395,0.
 57183982,0.00000185,0.00000012,0.57183631,-0.00181889,-0.00004852,-0.0
 0007943,0.04101133,-0.00005158,-0.11622602,-0.12298097,0.00004708,0.12
 335379,-0.00008537,-0.12298101,-0.24961597,0.00007965,0.14012581,0.275
 34033,-0.00181899,-0.00004569,0.00007917,0.00313439,0.00000161,-0.0000
 0376,0.04101133,-0.00004861,-0.10976524,0.11925087,0.00000165,0.008024
 01,-0.00946666,0.00004414,0.11599235,0.00008525,0.11925091,-0.25607672
 ,0.00000355,0.00859810,-0.02454073,-0.00007947,-0.13587570,0.28270178,
 -0.00181960,0.00008337,-0.00000125,0.00313434,-0.00000415,-0.00000042,
 0.00313436,-0.00000399,0.00000051,0.04101124,0.00009156,-0.32277381,0.
 00372998,0.00000189,-0.01677541,-0.00485124,0.00000185,-0.01602325,0.0
 0528554,-0.00008373,0.35869682,-0.00000135,0.00372997,-0.04306888,0.00
 000243,-0.02291601,0.00025904,-0.00000250,0.02335030,-0.00049315,0.000
 00110,-0.00425001,0.03999783,0.04472561,-0.00000171,-0.00000018,-0.022
 72957,0.00274991,0.00461873,-0.02272964,0.00262580,-0.00469028,-0.0227
 3062,-0.00537455,0.00007173,0.05864220,-0.00000210,-0.01152143,0.,0.00
 493559,0.00081150,-0.00141469,0.00471281,0.00088583,0.00137176,-0.0096
 4650,-0.00156379,0.00004293,-0.00000096,0.00936788,-0.00000016,0.,-0.0
 1152161,0.00829028,-0.00141473,-0.00072262,-0.00841879,0.00137181,-0.0
 0079686,0.00012870,0.00004292,0.00165326,-0.00000013,0.,0.00936779,0.0
 4475903,-0.00000139,-0.00000016,-0.02273142,-0.00274287,-0.00460883,-0
 .02273125,-0.00261898,0.00468044,-0.02272953,0.00536298,-0.00007142,-0
 .03517797,0.00000115,0.00000011,0.05861114,-0.00000321,-0.01155331,0.,
 -0.00493769,0.00081213,-0.00141222,-0.00471472,0.00088632,0.00136939,0
 .00965501,-0.00156055,0.00004281,0.00000153,0.00201998,0.,-0.00000091,
 0.00939540,-0.00000022,0.,-0.01155313,-0.00829649,-0.00141219,-0.00072
 004,0.00842536,0.00136936,-0.00079432,-0.00012864,0.00004282,0.0016519
 3,0.00000013,0.,0.00202000,-0.00000014,0.,0.00939552\\0.00001702,-0.00
 000123,0.00000005,0.00002178,-0.00002198,-0.00003784,0.00002187,-0.000
 02101,0.00003840,0.00002393,0.00004369,-0.00000063,-0.00009172,-0.0000
 0027,0.,0.00000713,0.00000080,0.00000002\\\@


 LET US PLACE AT THE END OF EVERY CHAPTER.....THE
 TWO LETTERS USED BY THE ROMAN JUDGES WHEN THEY DID
 NOT UNDERSTAND A PLEADING.
 N. L. -NON LIQUET- IT IS NOT CLEAR.
                                              -- VOLTAIRE
 Job cpu time:       0 days  0 hours  0 minutes  1.8 seconds.
 Elapsed time:       0 days  0 hours  0 minutes  1.6 seconds.
 File lengths (MBytes):  RWF=      6 Int=      0 D2E=      0 Chk=      2 Scr=      1
 Normal termination of Gaussian 16 at Mon Nov  6 15:37:55 2017.
