 Entering Gaussian System, Link 0=g16
 Input=MeCl_ts_IRC_reverse.gjf
 Output=MeCl_ts_IRC_reverse.out
 Initial command:
 /n/sw/g16_nehalem/g16/l1.exe "/scratch/dhuang9_MeCl_ts_IRC_reverse/Gau-14835.inp" -scrdir="/scratch/dhuang9_MeCl_ts_IRC_reverse/"
 Entering Link 1 = /n/sw/g16_nehalem/g16/l1.exe PID=     14836.
  
 Copyright (c) 1988,1990,1992,1993,1995,1998,2003,2009,2016,
            Gaussian, Inc.  All Rights Reserved.
  
 This is part of the Gaussian(R) 16 program.  It is based on
 the Gaussian(R) 09 system (copyright 2009, Gaussian, Inc.),
 the Gaussian(R) 03 system (copyright 2003, Gaussian, Inc.),
 the Gaussian(R) 98 system (copyright 1998, Gaussian, Inc.),
 the Gaussian(R) 94 system (copyright 1995, Gaussian, Inc.),
 the Gaussian 92(TM) system (copyright 1992, Gaussian, Inc.),
 the Gaussian 90(TM) system (copyright 1990, Gaussian, Inc.),
 the Gaussian 88(TM) system (copyright 1988, Gaussian, Inc.),
 the Gaussian 86(TM) system (copyright 1986, Carnegie Mellon
 University), and the Gaussian 82(TM) system (copyright 1983,
 Carnegie Mellon University). Gaussian is a federally registered
 trademark of Gaussian, Inc.
  
 This software contains proprietary and confidential information,
 including trade secrets, belonging to Gaussian, Inc.
  
 This software is provided under written license and may be
 used, copied, transmitted, or stored only in accord with that
 written license.
  
 The following legend is applicable only to US Government
 contracts under FAR:
  
                    RESTRICTED RIGHTS LEGEND
  
 Use, reproduction and disclosure by the US Government is
 subject to restrictions as set forth in subparagraphs (a)
 and (c) of the Commercial Computer Software - Restricted
 Rights clause in FAR 52.227-19.
  
 Gaussian, Inc.
 340 Quinnipiac St., Bldg. 40, Wallingford CT 06492
  
  
 ---------------------------------------------------------------
 Warning -- This program may not be used in any manner that
 competes with the business of Gaussian, Inc. or will provide
 assistance to any competitor of Gaussian, Inc.  The licensee
 of this program is prohibited from giving any competitor of
 Gaussian, Inc. access to this program.  By using this program,
 the user acknowledges that Gaussian, Inc. is engaged in the
 business of creating and licensing software in the field of
 computational chemistry and represents and warrants to the
 licensee that it is not a competitor of Gaussian, Inc. and that
 it will not use this program in any manner prohibited above.
 ---------------------------------------------------------------
  

 Cite this work as:
 Gaussian 16, Revision A.03,
 M. J. Frisch, G. W. Trucks, H. B. Schlegel, G. E. Scuseria, 
 M. A. Robb, J. R. Cheeseman, G. Scalmani, V. Barone, 
 G. A. Petersson, H. Nakatsuji, X. Li, M. Caricato, A. V. Marenich, 
 J. Bloino, B. G. Janesko, R. Gomperts, B. Mennucci, H. P. Hratchian, 
 J. V. Ortiz, A. F. Izmaylov, J. L. Sonnenberg, D. Williams-Young, 
 F. Ding, F. Lipparini, F. Egidi, J. Goings, B. Peng, A. Petrone, 
 T. Henderson, D. Ranasinghe, V. G. Zakrzewski, J. Gao, N. Rega, 
 G. Zheng, W. Liang, M. Hada, M. Ehara, K. Toyota, R. Fukuda, 
 J. Hasegawa, M. Ishida, T. Nakajima, Y. Honda, O. Kitao, H. Nakai, 
 T. Vreven, K. Throssell, J. A. Montgomery, Jr., J. E. Peralta, 
 F. Ogliaro, M. J. Bearpark, J. J. Heyd, E. N. Brothers, K. N. Kudin, 
 V. N. Staroverov, T. A. Keith, R. Kobayashi, J. Normand, 
 K. Raghavachari, A. P. Rendell, J. C. Burant, S. S. Iyengar, 
 J. Tomasi, M. Cossi, J. M. Millam, M. Klene, C. Adamo, R. Cammi, 
 J. W. Ochterski, R. L. Martin, K. Morokuma, O. Farkas, 
 J. B. Foresman, and D. J. Fox, Gaussian, Inc., Wallingford CT, 2016.
 
 ******************************************
 Gaussian 16:  ES64L-G16RevA.03 25-Dec-2016
                10-Nov-2017 
 ******************************************
 %mem=1GB
 --------------------------------------------------------------
 #p am1 IRC=(reverse,calcfc,maxpoints=300,stepsize=1,recalc=10)
 --------------------------------------------------------------
 1/10=4,18=10,22=2,26=1,38=1,39=1,42=300,44=3,71=10,172=1/1,23;
 2/12=2,17=6,18=5,29=1,40=1/2;
 3/5=2,25=1,41=700000,71=2,140=1/1,2,3;
 4/35=1/1;
 5/5=2,35=1,38=5/2;
 8/6=4,10=90,11=11/1;
 11/6=1,8=1,9=11,15=111,16=1/1,2,10;
 10/6=1,13=1/2;
 6/7=2,8=2,9=2,10=2,28=1/1;
 7/10=1,18=20,25=1/1,2,3,16;
 1/10=4,18=10,22=2,26=1,39=1,42=300,44=3,71=10/23(2);
 2/29=1/2;
 99/5=20/99;
 2/29=1/2;
 3/5=2,25=1,41=700000,71=2,135=20,140=1/1,2,3;
 4/5=5,16=3,35=1/1;
 5/5=2,35=1,38=5/2;
 8/6=4,10=90,11=11/1;
 11/6=1,8=1,9=11,15=111,16=1/1,2,10;
 10/6=1,13=1/2;
 7/10=1,18=20,25=1/1,2,3,16;
 1/18=10,22=2,26=1,39=1,42=300,44=3,71=10/23(-8);
 2/29=1/2;
 6/7=2,8=2,9=2,10=2,19=2,28=1/1;
 99/5=20,9=1/99;
 Leave Link    1 at Fri Nov 10 14:53:11 2017, MaxMem=   134217728 cpu:               0.0 elap:               0.1
 (Enter /n/sw/g16_nehalem/g16/l101.exe)
 -------
 MeCl ts
 -------
 Symbolic Z-matrix:
 Charge = -1 Multiplicity = 1
 C                     0.01994   0.00032   0.00004 
 H                    -0.00222   0.56204   0.94267 
 H                    -0.00225   0.5367   -0.95726 
 H                    -0.00252  -1.09683   0.01464 
 Cl                    2.14093  -0.00012  -0.00001 
 Cl                   -2.14755  -0.00011  -0.00001 
 
 ITRead=  0  0  0  0  0  0
 MicOpt= -1 -1 -1 -1 -1 -1
 NAtoms=      6 NQM=        6 NQMF=       0 NMMI=      0 NMMIF=      0
                NMic=       0 NMicF=      0.
                    Isotopes and Nuclear Properties:
 (Nuclear quadrupole moments (NQMom) in fm**2, nuclear magnetic moments (NMagM)
  in nuclear magnetons)

  Atom         1           2           3           4           5           6
 IAtWgt=          12           1           1           1          35          35
 AtmWgt=  12.0000000   1.0078250   1.0078250   1.0078250  34.9688527  34.9688527
 NucSpn=           0           1           1           1           3           3
 AtZEff=   0.0000000   0.0000000   0.0000000   0.0000000   0.0000000   0.0000000
 NQMom=    0.0000000   0.0000000   0.0000000   0.0000000  -8.1650000  -8.1650000
 NMagM=    0.0000000   2.7928460   2.7928460   2.7928460   0.8218740   0.8218740
 AtZNuc=   6.0000000   1.0000000   1.0000000   1.0000000  17.0000000  17.0000000
 Leave Link  101 at Fri Nov 10 14:53:12 2017, MaxMem=   134217728 cpu:               0.2 elap:               0.2
 (Enter /n/sw/g16_nehalem/g16/l123.exe)
 IRC-IRC-IRC-IRC-IRC-IRC-IRC-IRC-IRC-IRC-IRC-IRC-IRC-IRC-IRC-IRC-IRC-IRC
 ------------------------------------------------------------------------
 INPUT DATA FOR L123
 ------------------------------------------------------------------------
 GENERAL PARAMETERS:
 Rxn path following direction = Reverse
 Maximum points per path      = 300
 Step size                    =   0.010 bohr
 Integration scheme           = HPC                                 
    Redo corrector integration= Yes                                 
    DWI Weight Power          =  2
    DWI will use Hessian update vectors when possible.
    Max correction cycles     =  20
 Initial Hessian              = CalcFC
 Hessian evaluation           = Analytic every  10 predictor steps
                              = Update at all corrector steps
 Hessian updating method      = Bofill                              
 ------------------------------------------------------------------------
 IRC-IRC-IRC-IRC-IRC-IRC-IRC-IRC-IRC-IRC-IRC-IRC-IRC-IRC-IRC-IRC-IRC-IRC
 Leave Link  123 at Fri Nov 10 14:53:12 2017, MaxMem=   134217728 cpu:               0.0 elap:               0.0
 (Enter /n/sw/g16_nehalem/g16/l202.exe)
                          Input orientation:                          
 ---------------------------------------------------------------------
 Center     Atomic      Atomic             Coordinates (Angstroms)
 Number     Number       Type             X           Y           Z
 ---------------------------------------------------------------------
      1          6           0        0.019942    0.000323    0.000036
      2          1           0       -0.002217    0.562044    0.942666
      3          1           0       -0.002254    0.536699   -0.957257
      4          1           0       -0.002515   -1.096828    0.014643
      5         17           0        2.140926   -0.000118   -0.000008
      6         17           0       -2.147553   -0.000108   -0.000007
 ---------------------------------------------------------------------
                    Distance matrix (angstroms):
                    1          2          3          4          5
     1  C    0.000000
     2  H    1.097530   0.000000
     3  H    1.097544   1.900092   0.000000
     4  H    1.097478   1.900811   1.900789   0.000000
     5  Cl   2.120984   2.407846   2.407845   2.407764   0.000000
     6  Cl   2.167495   2.409795   2.409730   2.409190   4.288479
                    6
     6  Cl   0.000000
 Symmetry turned off by external request.
 Stoichiometry    CH3Cl2(1-)
 Framework group  C1[X(CH3Cl2)]
 Deg. of freedom    12
 Full point group                 C1      NOp   1
 Rotational constants (GHZ):         138.8246438           1.5627933           1.5627846
 Leave Link  202 at Fri Nov 10 14:53:12 2017, MaxMem=   134217728 cpu:               0.0 elap:               0.0
 (Enter /n/sw/g16_nehalem/g16/l301.exe)
 Standard basis: VSTO-6G (5D, 7F)
 Ernie: Thresh=  0.10000D-02 Tol=  0.10000D-05 Strict=F.
  NNHCO=     0 NNPyr=     0 NCTC=     0               EPep=         0.000000000
    EC=        31.461168317  ECS=         0.475275208   EG=         0.094797496
   EHC=         0.000000000  EAt=       -33.052413022  AtH=         0.613817027
 EPDDG=         0.000000000  ECC=        32.031241022 EAtT=        33.666230050
    15 basis functions,    90 primitive gaussians,    15 cartesian basis functions
    11 alpha electrons       11 beta electrons
       nuclear repulsion energy        65.6974710715 Hartrees.
 IExCor=    0 DFT=F Ex=HF Corr=None ExCW=0 ScaHFX=  1.000000
 ScaDFX=  1.000000  1.000000  1.000000  1.000000 ScalE2=  1.000000  1.000000
 IRadAn=      5 IRanWt=     -1 IRanGd=            0 ICorTp=0 IEmpDi=  4
 Integral buffers will be    131072 words long.
 Regular integral format.
 Two-electron integral symmetry is turned off.
 Leave Link  301 at Fri Nov 10 14:53:12 2017, MaxMem=   134217728 cpu:               0.1 elap:               0.1
 (Enter /n/sw/g16_nehalem/g16/l302.exe)
 Do NDO integrals.
 NPDir=0 NMtPBC=     1 NCelOv=     1 NCel=       1 NClECP=     1 NCelD=      1
         NCelK=      1 NCelE2=     1 NClLst=     1 CellRange=     0.0.
 One-electron integrals computed using PRISM.
 NBasis=    15 RedAO= F EigKep=  0.00D+00  NBF=    15
 NBsUse=    15 1.00D-04 EigRej=  0.00D+00 NBFU=    15
 Leave Link  302 at Fri Nov 10 14:53:12 2017, MaxMem=   134217728 cpu:               0.1 elap:               0.2
 (Enter /n/sw/g16_nehalem/g16/l303.exe)
 DipDrv:  MaxL=1.
 Leave Link  303 at Fri Nov 10 14:53:13 2017, MaxMem=   134217728 cpu:               0.1 elap:               0.1
 (Enter /n/sw/g16_nehalem/g16/l401.exe)
 Simple Huckel Guess.
 JPrj=0 DoOrth=F DoCkMO=F.
 Leave Link  401 at Fri Nov 10 14:53:13 2017, MaxMem=   134217728 cpu:               0.0 elap:               0.2
 (Enter /n/sw/g16_nehalem/g16/l502.exe)
 Keep J ints in memory in canonical form, NReq=859725.
 FoFCou: FMM=F IPFlag=           0 FMFlag=           0 FMFlg1=           0
         NFxFlg=           0 DoJE=F BraDBF=F KetDBF=F FulRan=T
         wScrn=  0.000000 ICntrl=       600 IOpCl=  2 I1Cent=           0 NGrid=           0
         NMat0=    1 NMatS0=     33 NMatT0=    0 NMatD0=    1 NMtDS0=    0 NMtDT0=    0
 Symmetry not used in FoFCou.
 Two-electron integral symmetry not used.
 Closed shell SCF:
 Using DIIS extrapolation, IDIIS=  1040.
 Overlap will be assumed to be unity.
 NGot=   134217728 LenX=   134156826 LenY=   134155944
 Requested convergence on RMS density matrix=1.00D-08 within 128 cycles.
 Requested convergence on MAX density matrix=1.00D-06.
 Requested convergence on             energy=1.00D-06.
 No special actions if energy rises.

 Cycle   1  Pass 1  IDiag  1:
 E= 0.721808838940206E-01
 DIIS: error= 7.35D-02 at cycle   1 NSaved=   1.
 NSaved= 1 IEnMin= 1 EnMin= 0.721808838940206E-01 IErMin= 1 ErrMin= 7.35D-02
 ErrMax= 7.35D-02  0.00D+00 EMaxC= 1.00D-01 BMatC= 7.59D-02 BMatP= 7.59D-02
 IDIUse=3 WtCom= 2.65D-01 WtEn= 7.35D-01
 Coeff-Com:  0.100D+01
 Coeff-En:   0.100D+01
 Coeff:      0.100D+01
 GapD=    2.000 DampG=2.000 DampE=0.500 DampFc=1.0000 IDamp=-1.
 RMSDP=2.18D-02 MaxDP=1.29D-01              OVMax= 0.00D+00

 Cycle   2  Pass 1  IDiag  1:
 E=-0.824303864823861E-01 Delta-E=       -0.154611270376 Rises=F Damp=F
 DIIS: error= 1.28D-02 at cycle   2 NSaved=   2.
 NSaved= 2 IEnMin= 2 EnMin=-0.824303864823861E-01 IErMin= 2 ErrMin= 1.28D-02
 ErrMax= 1.28D-02  0.00D+00 EMaxC= 1.00D-01 BMatC= 3.12D-03 BMatP= 7.59D-02
 IDIUse=3 WtCom= 8.72D-01 WtEn= 1.28D-01
 Coeff-Com: -0.244D+00 0.124D+01
 Coeff-En:   0.000D+00 0.100D+01
 Coeff:     -0.213D+00 0.121D+01
 RMSDP=5.55D-03 MaxDP=3.92D-02 DE=-1.55D-01 OVMax= 0.00D+00

 Cycle   3  Pass 1  IDiag  3:
 E=-0.893143196240231E-01 Delta-E=       -0.006883933142 Rises=F Damp=F
 DIIS: error= 1.18D-03 at cycle   3 NSaved=   3.
 NSaved= 3 IEnMin= 3 EnMin=-0.893143196240231E-01 IErMin= 3 ErrMin= 1.18D-03
 ErrMax= 1.18D-03  0.00D+00 EMaxC= 1.00D-01 BMatC= 3.41D-05 BMatP= 3.12D-03
 IDIUse=3 WtCom= 9.88D-01 WtEn= 1.18D-02
 Coeff-Com:  0.896D-01-0.509D+00 0.142D+01
 Coeff-En:   0.000D+00 0.000D+00 0.100D+01
 Coeff:      0.885D-01-0.503D+00 0.141D+01
 Gap=     0.371 Goal=   None    Shift=    0.000
 RMSDP=1.34D-03 MaxDP=6.29D-03 DE=-6.88D-03 OVMax= 1.15D-02

 Cycle   4  Pass 1  IDiag  3:
 E=-0.895029894112866E-01 Delta-E=       -0.000188669787 Rises=F Damp=F
 DIIS: error= 2.10D-04 at cycle   4 NSaved=   4.
 NSaved= 4 IEnMin= 4 EnMin=-0.895029894112866E-01 IErMin= 4 ErrMin= 2.10D-04
 ErrMax= 2.10D-04  0.00D+00 EMaxC= 1.00D-01 BMatC= 1.60D-06 BMatP= 3.41D-05
 IDIUse=3 WtCom= 9.98D-01 WtEn= 2.10D-03
 Coeff-Com: -0.187D-01 0.105D+00-0.442D+00 0.136D+01
 Coeff-En:   0.000D+00 0.000D+00 0.000D+00 0.100D+01
 Coeff:     -0.187D-01 0.104D+00-0.441D+00 0.136D+01
 Gap=     0.372 Goal=   None    Shift=    0.000
 RMSDP=3.78D-04 MaxDP=1.50D-03 DE=-1.89D-04 OVMax= 3.68D-03

 Cycle   5  Pass 1  IDiag  3:
 E=-0.895147285882558E-01 Delta-E=       -0.000011739177 Rises=F Damp=F
 DIIS: error= 4.80D-05 at cycle   5 NSaved=   5.
 NSaved= 5 IEnMin= 5 EnMin=-0.895147285882558E-01 IErMin= 5 ErrMin= 4.80D-05
 ErrMax= 4.80D-05  0.00D+00 EMaxC= 1.00D-01 BMatC= 7.41D-08 BMatP= 1.60D-06
 IDIUse=1 WtCom= 1.00D+00 WtEn= 0.00D+00
 Coeff-Com:  0.450D-02-0.236D-01 0.119D+00-0.590D+00 0.149D+01
 Coeff:      0.450D-02-0.236D-01 0.119D+00-0.590D+00 0.149D+01
 Gap=     0.372 Goal=   None    Shift=    0.000
 RMSDP=9.33D-05 MaxDP=3.75D-04 DE=-1.17D-05 OVMax= 8.79D-04

 Cycle   6  Pass 1  IDiag  3:
 E=-0.895152492362712E-01 Delta-E=       -0.000000520648 Rises=F Damp=F
 DIIS: error= 8.35D-06 at cycle   6 NSaved=   6.
 NSaved= 6 IEnMin= 6 EnMin=-0.895152492362712E-01 IErMin= 6 ErrMin= 8.35D-06
 ErrMax= 8.35D-06  0.00D+00 EMaxC= 1.00D-01 BMatC= 1.53D-09 BMatP= 7.41D-08
 IDIUse=1 WtCom= 1.00D+00 WtEn= 0.00D+00
 Coeff-Com: -0.509D-03 0.193D-02-0.218D-01 0.196D+00-0.626D+00 0.145D+01
 Coeff:     -0.509D-03 0.193D-02-0.218D-01 0.196D+00-0.626D+00 0.145D+01
 Gap=     0.372 Goal=   None    Shift=    0.000
 RMSDP=1.01D-05 MaxDP=4.88D-05 DE=-5.21D-07 OVMax= 4.58D-05

 Cycle   7  Pass 1  IDiag  3:
 E=-0.895152579447114E-01 Delta-E=       -0.000000008708 Rises=F Damp=F
 DIIS: error= 1.61D-06 at cycle   7 NSaved=   7.
 NSaved= 7 IEnMin= 7 EnMin=-0.895152579447114E-01 IErMin= 7 ErrMin= 1.61D-06
 ErrMax= 1.61D-06  0.00D+00 EMaxC= 1.00D-01 BMatC= 5.26D-11 BMatP= 1.53D-09
 IDIUse=1 WtCom= 1.00D+00 WtEn= 0.00D+00
 Coeff-Com: -0.179D-03 0.126D-02-0.807D-03-0.363D-01 0.148D+00-0.532D+00
 Coeff-Com:  0.142D+01
 Coeff:     -0.179D-03 0.126D-02-0.807D-03-0.363D-01 0.148D+00-0.532D+00
 Coeff:      0.142D+01
 Gap=     0.372 Goal=   None    Shift=    0.000
 RMSDP=1.87D-06 MaxDP=9.12D-06 DE=-8.71D-09 OVMax= 9.76D-06

 Cycle   8  Pass 1  IDiag  3:
 E=-0.895152582415051E-01 Delta-E=       -0.000000000297 Rises=F Damp=F
 DIIS: error= 3.58D-07 at cycle   8 NSaved=   8.
 NSaved= 8 IEnMin= 8 EnMin=-0.895152582415051E-01 IErMin= 8 ErrMin= 3.58D-07
 ErrMax= 3.58D-07  0.00D+00 EMaxC= 1.00D-01 BMatC= 1.64D-12 BMatP= 5.26D-11
 IDIUse=1 WtCom= 1.00D+00 WtEn= 0.00D+00
 Coeff-Com:  0.377D-04-0.350D-03-0.729D-03 0.222D-01-0.825D-01 0.288D+00
 Coeff-Com: -0.799D+00 0.157D+01
 Coeff:      0.377D-04-0.350D-03-0.729D-03 0.222D-01-0.825D-01 0.288D+00
 Coeff:     -0.799D+00 0.157D+01
 Gap=     0.372 Goal=   None    Shift=    0.000
 RMSDP=3.61D-07 MaxDP=2.82D-06 DE=-2.97D-10 OVMax= 3.13D-06

 Cycle   9  Pass 1  IDiag  3:
 E=-0.895152582503442E-01 Delta-E=       -0.000000000009 Rises=F Damp=F
 DIIS: error= 5.60D-08 at cycle   9 NSaved=   9.
 NSaved= 9 IEnMin= 9 EnMin=-0.895152582503442E-01 IErMin= 9 ErrMin= 5.60D-08
 ErrMax= 5.60D-08  0.00D+00 EMaxC= 1.00D-01 BMatC= 3.57D-14 BMatP= 1.64D-12
 IDIUse=1 WtCom= 1.00D+00 WtEn= 0.00D+00
 Coeff-Com:  0.418D-05 0.477D-05 0.392D-03-0.513D-02 0.176D-01-0.574D-01
 Coeff-Com:  0.154D+00-0.312D+00 0.120D+01
 Coeff:      0.418D-05 0.477D-05 0.392D-03-0.513D-02 0.176D-01-0.574D-01
 Coeff:      0.154D+00-0.312D+00 0.120D+01
 Gap=     0.372 Goal=   None    Shift=    0.000
 RMSDP=4.06D-08 MaxDP=3.21D-07 DE=-8.84D-12 OVMax= 3.57D-07

 Cycle  10  Pass 1  IDiag  3:
 E=-0.895152582505148E-01 Delta-E=        0.000000000000 Rises=F Damp=F
 DIIS: error= 1.11D-08 at cycle  10 NSaved=  10.
 NSaved=10 IEnMin=10 EnMin=-0.895152582505148E-01 IErMin=10 ErrMin= 1.11D-08
 ErrMax= 1.11D-08  0.00D+00 EMaxC= 1.00D-01 BMatC= 1.86D-15 BMatP= 3.57D-14
 IDIUse=1 WtCom= 1.00D+00 WtEn= 0.00D+00
 Coeff-Com: -0.100D-05 0.338D-05-0.448D-04 0.449D-03-0.148D-02 0.481D-02
 Coeff-Com: -0.130D-01 0.264D-01-0.442D+00 0.142D+01
 Coeff:     -0.100D-05 0.338D-05-0.448D-04 0.449D-03-0.148D-02 0.481D-02
 Coeff:     -0.130D-01 0.264D-01-0.442D+00 0.142D+01
 Gap=     0.372 Goal=   None    Shift=    0.000
 RMSDP=1.35D-08 MaxDP=8.55D-08 DE=-1.71D-13 OVMax= 9.47D-08

 Cycle  11  Pass 1  IDiag  3:
 E=-0.895152582506284E-01 Delta-E=        0.000000000000 Rises=F Damp=F
 DIIS: error= 1.98D-09 at cycle  11 NSaved=  11.
 NSaved=11 IEnMin=11 EnMin=-0.895152582506284E-01 IErMin=11 ErrMin= 1.98D-09
 ErrMax= 1.98D-09  0.00D+00 EMaxC= 1.00D-01 BMatC= 9.17D-17 BMatP= 1.86D-15
 IDIUse=1 WtCom= 1.00D+00 WtEn= 0.00D+00
 Coeff-Com: -0.186D-06 0.178D-05 0.402D-05-0.123D-03 0.462D-03-0.175D-02
 Coeff-Com:  0.510D-02-0.105D-01 0.213D+00-0.801D+00 0.159D+01
 Coeff:     -0.186D-06 0.178D-05 0.402D-05-0.123D-03 0.462D-03-0.175D-02
 Coeff:      0.510D-02-0.105D-01 0.213D+00-0.801D+00 0.159D+01
 Gap=     0.372 Goal=   None    Shift=    0.000
 RMSDP=3.06D-09 MaxDP=1.15D-08 DE=-1.14D-13 OVMax= 1.89D-08

 Cycle  12  Pass 2  IDiag  1:
 SCF Done:  E(RAM1) = -0.895152582506E-01 A.U. after   12 cycles
            NFock= 11  Conv=0.31D-08     -V/T= 0.9984
 KE=-5.738975430731D+01 PE=-6.408110545582D+01 EE= 5.568387343337D+01
 Leave Link  502 at Fri Nov 10 14:53:13 2017, MaxMem=   134217728 cpu:               0.1 elap:               0.1
 (Enter /n/sw/g16_nehalem/g16/l801.exe)
 Range of M.O.s used for correlation:     1    15
 NBasis=    15 NAE=    11 NBE=    11 NFC=     0 NFV=     0
 NROrb=     15 NOA=    11 NOB=    11 NVA=     4 NVB=     4
 Leave Link  801 at Fri Nov 10 14:53:13 2017, MaxMem=   134217728 cpu:               0.0 elap:               0.1
 (Enter /n/sw/g16_nehalem/g16/l1101.exe)
 Using compressed storage, NAtomX=     6.
 Will process      7 centers per pass.
 Leave Link 1101 at Fri Nov 10 14:53:14 2017, MaxMem=   134217728 cpu:               0.1 elap:               0.1
 (Enter /n/sw/g16_nehalem/g16/l1102.exe)
 Symmetrizing basis deriv contribution to polar:
 IMax=3 JMax=2 DiffMx= 0.00D+00
 Leave Link 1102 at Fri Nov 10 14:53:14 2017, MaxMem=   134217728 cpu:               0.0 elap:               0.1
 (Enter /n/sw/g16_nehalem/g16/l1110.exe)
 Forming Gx(P) for the SCF density, NAtomX=     6.
 Integral derivatives from FoFJK, PRISM(SPDF).
 Do as many integral derivatives as possible in FoFJK.
 G2DrvN: MDV=     134158284.
 G2DrvN: will do     7 centers at a time, making    1 passes.
 Calling FoFCou, ICntrl=  3107 FMM=F I1Cent=   0 AccDes= 0.00D+00.
 FoFJK:  IHMeth= 8 ICntrl=    3107 DoSepK=F KAlg= 0 I1Cent=           0 FoldK=F
 IRaf=         0 NMat=       1 IRICut=       1 DoRegI=T DoRafI=F ISym2E= 0 IDoP0=3 IntGTp=3.
 FoFCou: FMM=F IPFlag=           0 FMFlag=      100000 FMFlg1=           0
         NFxFlg=           0 DoJE=F BraDBF=F KetDBF=F FulRan=T
         wScrn=  0.000000 ICntrl=      3107 IOpCl=  0 I1Cent=           0 NGrid=           0
         NMat0=    1 NMatS0=      1 NMatT0=    0 NMatD0=    1 NMtDS0=    0 NMtDT0=    0
 Symmetry not used in FoFCou.
 End of G2Drv F.D. properties file   721 does not exist.
 End of G2Drv F.D. properties file   722 does not exist.
 End of G2Drv F.D. properties file   788 does not exist.
 Leave Link 1110 at Fri Nov 10 14:53:14 2017, MaxMem=   134217728 cpu:               0.1 elap:               0.1
 (Enter /n/sw/g16_nehalem/g16/l1002.exe)
 Minotr:  Closed shell wavefunction.
          IDoAtm=111111
          Direct CPHF calculation.
          Differentiating once with respect to nuclear coordinates.
          Electric field/nuclear overlap derivatives assumed to be zero.
          Requested convergence is 1.0D-08 RMS, and 1.0D-07 maximum.
          NewPWx=T KeepS1=F KeepF1=F KeepIn=T MapXYZ=F SortEE=F KeepMc=T.
 Keep J ints in memory in canonical form, NReq=860436.
 FoFCou: FMM=F IPFlag=           0 FMFlag=           0 FMFlg1=           0
         NFxFlg=           0 DoJE=F BraDBF=F KetDBF=F FulRan=T
         wScrn=  0.000000 ICntrl=       600 IOpCl=  2 I1Cent=           0 NGrid=           0
         NMat0=    1 NMatS0=     33 NMatT0=    0 NMatD0=    1 NMtDS0=    0 NMtDT0=    0
 Symmetry not used in FoFCou.
 Two-electron integral symmetry not used.
          MDV=     134217728 using IRadAn=       1.
          Solving linear equations separately, MaxMat=       0.
          There are    21 degrees of freedom in the 1st order CPHF.  IDoFFX=5 NUNeed=    21.
 LinEq1:  Iter=  0 NonCon=    18 RMS=5.70D-02 Max=3.09D-01 NDo=    18
 AX will form    21 AO Fock derivatives at one time.
 LinEq1:  Iter=  1 NonCon=    18 RMS=5.26D-03 Max=2.59D-02 NDo=    21
 LinEq1:  Iter=  2 NonCon=    18 RMS=2.43D-04 Max=7.90D-04 NDo=    21
 LinEq1:  Iter=  3 NonCon=    18 RMS=1.76D-05 Max=6.74D-05 NDo=    21
 LinEq1:  Iter=  4 NonCon=    18 RMS=2.06D-06 Max=9.39D-06 NDo=    21
 LinEq1:  Iter=  5 NonCon=    18 RMS=1.97D-07 Max=5.33D-07 NDo=    21
 LinEq1:  Iter=  6 NonCon=     5 RMS=1.19D-08 Max=4.58D-08 NDo=    21
 LinEq1:  Iter=  7 NonCon=     0 RMS=7.10D-10 Max=3.13D-09 NDo=    21
 Linear equations converged to 1.000D-08 1.000D-07 after     7 iterations.
 End of Minotr F.D. properties file   721 does not exist.
 End of Minotr F.D. properties file   722 does not exist.
 End of Minotr F.D. properties file   788 does not exist.
 Leave Link 1002 at Fri Nov 10 14:53:14 2017, MaxMem=   134217728 cpu:               0.0 elap:               0.1
 (Enter /n/sw/g16_nehalem/g16/l601.exe)
 Copying SCF densities to generalized density rwf, IOpCl= 0 IROHF=0.

 **********************************************************************

            Population analysis using the SCF density.

 **********************************************************************

 Alpha  occ. eigenvalues --   -1.07036  -1.05037  -0.87347  -0.37569  -0.37556
 Alpha  occ. eigenvalues --   -0.30878  -0.21751  -0.21751  -0.20076  -0.20076
 Alpha  occ. eigenvalues --   -0.16079
 Alpha virt. eigenvalues --    0.21079   0.31135   0.32779   0.32788
          Condensed to atoms (all electrons):
               1          2          3          4          5          6
     1  C    3.897464   0.000000   0.000000   0.000000   0.000000   0.000000
     2  H    0.000000   0.895092   0.000000   0.000000   0.000000   0.000000
     3  H    0.000000   0.000000   0.895092   0.000000   0.000000   0.000000
     4  H    0.000000   0.000000   0.000000   0.894935   0.000000   0.000000
     5  Cl   0.000000   0.000000   0.000000   0.000000   7.685339   0.000000
     6  Cl   0.000000   0.000000   0.000000   0.000000   0.000000   7.732078
 Mulliken charges:
               1
     1  C    0.102536
     2  H    0.104908
     3  H    0.104908
     4  H    0.105065
     5  Cl  -0.685339
     6  Cl  -0.732078
 Sum of Mulliken charges =  -1.00000
 Mulliken charges with hydrogens summed into heavy atoms:
               1
     1  C    0.417417
     5  Cl  -0.685339
     6  Cl  -0.732078
 APT charges:
               1
     1  C    0.102536
     2  H    0.104908
     3  H    0.104908
     4  H    0.105065
     5  Cl  -0.685339
     6  Cl  -0.732078
 Sum of APT charges =  -1.00000
 APT charges with hydrogens summed into heavy atoms:
               1
     1  C    0.417417
     5  Cl  -0.685339
     6  Cl  -0.732078
 Charge=             -1.0000 electrons
 Dipole moment (field-independent basis, Debye):
    X=              0.5086    Y=              0.0014    Z=              0.0001  Tot=              0.5086
 N-N= 6.569747107152D+01 E-N=-6.408110544087D+01  KE=-5.738975430731D+01
  Exact polarizability:   0.000   0.000   0.000   0.000   0.000   0.000
 Approx polarizability:  50.629   0.000   4.694   0.000   0.000   4.690
 Leave Link  601 at Fri Nov 10 14:53:15 2017, MaxMem=   134217728 cpu:               0.0 elap:               0.1
 (Enter /n/sw/g16_nehalem/g16/l701.exe)
 ... and contract with generalized density number  0.
 Compute integral second derivatives.
 Leave Link  701 at Fri Nov 10 14:53:15 2017, MaxMem=   134217728 cpu:               0.1 elap:               0.1
 (Enter /n/sw/g16_nehalem/g16/l702.exe)
 L702 exits ... SP integral derivatives will be done elsewhere.
 Leave Link  702 at Fri Nov 10 14:53:15 2017, MaxMem=   134217728 cpu:               0.0 elap:               0.0
 (Enter /n/sw/g16_nehalem/g16/l703.exe)
 Integral derivatives from FoFJK, PRISM(SPDF).
 Compute integral second derivatives, UseDBF=F ICtDFT=           0.
 Calling FoFJK, ICntrl=    100147 FMM=F ISym2X=0 I1Cent= 0 IOpClX= 0 NMat=1 NMatS=1 NMatT=0.
 FoFJK:  IHMeth= 8 ICntrl=  100147 DoSepK=F KAlg= 0 I1Cent=           0 FoldK=F
 IRaf=         0 NMat=       1 IRICut=       1 DoRegI=T DoRafI=F ISym2E= 0 IDoP0=3 IntGTp=3.
 FoFCou: FMM=F IPFlag=           0 FMFlag=      100000 FMFlg1=         800
         NFxFlg=           0 DoJE=F BraDBF=F KetDBF=F FulRan=T
         wScrn=  0.000000 ICntrl=    100147 IOpCl=  0 I1Cent=           0 NGrid=           0
         NMat0=    1 NMatS0=      1 NMatT0=    0 NMatD0=    1 NMtDS0=    0 NMtDT0=    0
 Symmetry not used in FoFCou.
 Leave Link  703 at Fri Nov 10 14:53:15 2017, MaxMem=   134217728 cpu:               0.0 elap:               0.1
 (Enter /n/sw/g16_nehalem/g16/l716.exe)
 Dipole        = 2.00095403D-01 5.59357575D-04 4.03301367D-05
 Polarizability= 0.00000000D+00 0.00000000D+00 0.00000000D+00
                 0.00000000D+00 0.00000000D+00 0.00000000D+00
 -------------------------------------------------------------------
 Center     Atomic                   Forces (Hartrees/Bohr)
 Number     Number              X              Y              Z
 -------------------------------------------------------------------
      1        6           0.003656567    0.000089173   -0.000012871
      2        1          -0.000032119   -0.000028396    0.000059450
      3        1          -0.000029480   -0.000030998   -0.000051666
      4        1          -0.000014123   -0.000042268    0.000003091
      5       17           0.000044302    0.000001863    0.000000573
      6       17          -0.003625146    0.000010627    0.000001422
 -------------------------------------------------------------------
 Cartesian Forces:  Max     0.003656567 RMS     0.001214135
 Z-matrix is all fixed cartesians, so copy forces.
 Force constants in Cartesian coordinates: 
                1             2             3             4             5 
      1 -0.819369D-01
      2  0.728320D-04  0.570836D+00
      3  0.690202D-05  0.110673D-04  0.570321D+00
      4 -0.164543D-02  0.288476D-02  0.484402D-02  0.415873D-01
      5  0.303047D-02 -0.116182D+00 -0.122688D+00 -0.314017D-02  0.123236D+00
      6  0.509524D-02 -0.122688D+00 -0.248973D+00 -0.527467D-02  0.139901D+00
      7 -0.164563D-02  0.275845D-02 -0.492635D-02  0.307721D-02 -0.197341D-03
      8  0.289789D-02 -0.109729D+00  0.118962D+00 -0.206666D-03  0.800421D-02
      9 -0.518325D-02  0.118962D+00 -0.255407D+00 -0.343478D-03  0.858409D-02
     10 -0.157127D-02 -0.570991D-02  0.760136D-04  0.306224D-02  0.398423D-03
     11 -0.601581D-02 -0.322115D+00  0.371520D-02 -0.206225D-03 -0.167564D-01
     12  0.795991D-04  0.371556D-02 -0.431242D-01 -0.348607D-03 -0.228774D-01
     13  0.428228D-01  0.336309D-05  0.000000D+00 -0.236402D-01  0.281182D-02
     14 -0.106477D-04 -0.126511D-01  0.000000D+00  0.536929D-02  0.914768D-03
     15 -0.147177D-05  0.000000D+00 -0.126526D-01  0.900903D-02 -0.147269D-02
     16  0.439764D-01 -0.948872D-05  0.000000D+00 -0.224411D-01 -0.290318D-02
     17  0.252456D-04 -0.101586D-01  0.000000D+00 -0.470099D-02  0.783359D-03
     18  0.297775D-05  0.000000D+00 -0.101636D-01 -0.788629D-02 -0.144642D-02
                6             7             8             9            10 
      6  0.274732D+00
      7  0.348035D-03  0.415906D-01
      8 -0.945298D-02 -0.300248D-02  0.115880D+00
      9 -0.245596D-01  0.536455D-02 -0.135651D+00  0.282071D+00
     10 -0.897471D-05  0.306242D-02  0.399008D-03 -0.186271D-05  0.415848D-01
     11 -0.484084D-02 -0.196619D-03 -0.160070D-01  0.527533D-02  0.621751D-02
     12  0.257234D-03  0.353796D-03  0.233116D-01 -0.493980D-03 -0.825164D-04
     13  0.470823D-02 -0.236410D-01  0.268528D-02 -0.478069D-02 -0.236624D-01
     14 -0.147156D-02  0.512719D-02  0.992128D-03  0.142685D-02 -0.104782D-01
     15 -0.675771D-03 -0.914789D-02  0.142806D-02 -0.752614D-03  0.140255D-03
     16 -0.486783D-02 -0.224435D-01 -0.277302D-02  0.494470D-02 -0.224757D-01
     17 -0.144699D-02 -0.448920D-02  0.859529D-03  0.140350D-02  0.917318D-02
     18 -0.781262D-03  0.800786D-02  0.140277D-02 -0.857290D-03 -0.122915D-03
               11            12            13            14            15 
     11  0.358073D+00
     12 -0.423835D-02  0.399201D-01
     13 -0.547806D-02  0.734429D-04  0.634764D-01
     14 -0.154983D-02  0.447217D-04 -0.139490D-04  0.102352D-01
     15  0.446457D-04  0.179277D-02  0.000000D+00  0.000000D+00  0.102300D-01
     16  0.567917D-02 -0.757143D-04 -0.353555D-01  0.632333D-05  0.000000D+00
     17 -0.164541D-02  0.438615D-04 -0.842648D-05  0.205878D-02  0.000000D+00
     18  0.440173D-04  0.164810D-02  0.000000D+00  0.000000D+00  0.205815D-02
               16            17            18 
     16  0.587395D-01
     17  0.000000D+00  0.810234D-02
     18  0.000000D+00  0.000000D+00  0.809592D-02
 Leave Link  716 at Fri Nov 10 14:53:15 2017, MaxMem=   134217728 cpu:               0.0 elap:               0.1
 (Enter /n/sw/g16_nehalem/g16/l123.exe)
 IRC-IRC-IRC-IRC-IRC-IRC-IRC-IRC-IRC-IRC-IRC-IRC-IRC-IRC-IRC-IRC-IRC-IRC
          ******** Start new reaction path calculation ********
 Current Structure is TS -> form Hessian eigenvectors.
                            Diagonalizing Hessian.
 Supplied step size of   0.0100 bohr.
    Integration on MW PES will use step size of   0.0358 sqrt(amu)*bohr.
 Point Number:   0          Path Number:   1
 Calculating another point on the path.
 Point Number  1 in REVERSE path direction.
 Using LQA Reaction Path Following.
 IRC-IRC-IRC-IRC-IRC-IRC-IRC-IRC-IRC-IRC-IRC-IRC-IRC-IRC-IRC-IRC-IRC-IRC
 Leave Link  123 at Fri Nov 10 14:53:15 2017, MaxMem=   134217728 cpu:               0.0 elap:               0.1
 (Enter /n/sw/g16_nehalem/g16/l202.exe)
                          Input orientation:                          
 ---------------------------------------------------------------------
 Center     Atomic      Atomic             Coordinates (Angstroms)
 Number     Number       Type             X           Y           Z
 ---------------------------------------------------------------------
      1          6           0        0.024997    0.000348    0.000037
      2          1           0       -0.002779    0.562026    0.942593
      3          1           0       -0.002816    0.536683   -0.957181
      4          1           0       -0.003087   -1.096716    0.014642
      5         17           0        2.140090   -0.000093   -0.000008
      6         17           0       -2.148418   -0.000084   -0.000007
 ---------------------------------------------------------------------
                    Distance matrix (angstroms):
                    1          2          3          4          5
     1  C    0.000000
     2  H    1.097573   0.000000
     3  H    1.097586   1.899943   0.000000
     4  H    1.097520   1.900662   1.900640   0.000000
     5  Cl   2.115093   2.407563   2.407562   2.407488   0.000000
     6  Cl   2.173415   2.410026   2.409960   2.409411   4.288507
                    6
     6  Cl   0.000000
 Symmetry turned off by external request.
 Stoichiometry    CH3Cl2(1-)
 Framework group  C1[X(CH3Cl2)]
 Deg. of freedom    12
 Full point group                 C1      NOp   1
 Rotational constants (GHZ):         138.8464459           1.5627587           1.5627500
 Leave Link  202 at Fri Nov 10 14:53:15 2017, MaxMem=   134217728 cpu:               0.0 elap:               0.0
 (Enter /n/sw/g16_nehalem/g16/l301.exe)
 Standard basis: VSTO-6G (5D, 7F)
 Ernie: Thresh=  0.10000D-02 Tol=  0.10000D-05 Strict=F.
  NNHCO=     0 NNPyr=     0 NCTC=     0               EPep=         0.000000000
    EC=        31.461581482  ECS=         0.475325061   EG=         0.094845079
   EHC=         0.000000000  EAt=       -33.052413022  AtH=         0.613817027
 EPDDG=         0.000000000  ECC=        32.031751622 EAtT=        33.666230050
    15 basis functions,    90 primitive gaussians,    15 cartesian basis functions
    11 alpha electrons       11 beta electrons
       nuclear repulsion energy        65.6979816716 Hartrees.
 IExCor=    0 DFT=F Ex=HF Corr=None ExCW=0 ScaHFX=  1.000000
 ScaDFX=  1.000000  1.000000  1.000000  1.000000 ScalE2=  1.000000  1.000000
 IRadAn=      5 IRanWt=     -1 IRanGd=            0 ICorTp=0 IEmpDi=  4
 Integral buffers will be    131072 words long.
 Regular integral format.
 Two-electron integral symmetry is turned off.
 Leave Link  301 at Fri Nov 10 14:53:16 2017, MaxMem=   134217728 cpu:               0.1 elap:               0.1
 (Enter /n/sw/g16_nehalem/g16/l302.exe)
 Do NDO integrals.
 NPDir=0 NMtPBC=     1 NCelOv=     1 NCel=       1 NClECP=     1 NCelD=      1
         NCelK=      1 NCelE2=     1 NClLst=     1 CellRange=     0.0.
 One-electron integrals computed using PRISM.
 NBasis=    15 RedAO= F EigKep=  0.00D+00  NBF=    15
 NBsUse=    15 1.00D-04 EigRej=  0.00D+00 NBFU=    15
 Leave Link  302 at Fri Nov 10 14:53:16 2017, MaxMem=   134217728 cpu:               0.1 elap:               0.1
 (Enter /n/sw/g16_nehalem/g16/l303.exe)
 DipDrv:  MaxL=1.
 Leave Link  303 at Fri Nov 10 14:53:16 2017, MaxMem=   134217728 cpu:               0.0 elap:               0.0
 (Enter /n/sw/g16_nehalem/g16/l401.exe)
 Initial guess from the checkpoint file:  "/scratch/dhuang9_MeCl_ts_IRC_reverse/Gau-14836.chk"
 B after Tr=    -0.000012    0.000047    0.000001
         Rot=    1.000000    0.000000    0.000000    0.000000 Ang=   0.00 deg.
 Guess basis will be translated and rotated to current coordinates.
 JPrj=0 DoOrth=T DoCkMO=T.
 Leave Link  401 at Fri Nov 10 14:53:16 2017, MaxMem=   134217728 cpu:               0.1 elap:               0.1
 (Enter /n/sw/g16_nehalem/g16/l502.exe)
 Keep J ints in memory in canonical form, NReq=859725.
 FoFCou: FMM=F IPFlag=           0 FMFlag=           0 FMFlg1=           0
         NFxFlg=           0 DoJE=F BraDBF=F KetDBF=F FulRan=T
         wScrn=  0.000000 ICntrl=       600 IOpCl=  2 I1Cent=           0 NGrid=           0
         NMat0=    1 NMatS0=     33 NMatT0=    0 NMatD0=    1 NMtDS0=    0 NMtDT0=    0
 Symmetry not used in FoFCou.
 Two-electron integral symmetry not used.
 Closed shell SCF:
 Using DIIS extrapolation, IDIIS=  1040.
 Overlap will be assumed to be unity.
 NGot=   134217728 LenX=   134156826 LenY=   134155944
 Requested convergence on RMS density matrix=1.00D-08 within 128 cycles.
 Requested convergence on MAX density matrix=1.00D-06.
 Requested convergence on             energy=1.00D-06.
 No special actions if energy rises.

 Cycle   1  Pass 1  IDiag  1:
 E=-0.895333119685802E-01
 DIIS: error= 6.54D-04 at cycle   1 NSaved=   1.
 NSaved= 1 IEnMin= 1 EnMin=-0.895333119685802E-01 IErMin= 1 ErrMin= 6.54D-04
 ErrMax= 6.54D-04  0.00D+00 EMaxC= 1.00D-01 BMatC= 5.03D-06 BMatP= 5.03D-06
 IDIUse=3 WtCom= 9.93D-01 WtEn= 6.54D-03
 Coeff-Com:  0.100D+01
 Coeff-En:   0.100D+01
 Coeff:      0.100D+01
 RMSDP=3.91D-04 MaxDP=1.86D-03              OVMax= 0.00D+00

 Cycle   2  Pass 1  IDiag  3:
 E=-0.895566316868610E-01 Delta-E=       -0.000023319718 Rises=F Damp=F
 DIIS: error= 1.96D-04 at cycle   2 NSaved=   2.
 NSaved= 2 IEnMin= 2 EnMin=-0.895566316868610E-01 IErMin= 2 ErrMin= 1.96D-04
 ErrMax= 1.96D-04  0.00D+00 EMaxC= 1.00D-01 BMatC= 7.01D-07 BMatP= 5.03D-06
 IDIUse=3 WtCom= 9.98D-01 WtEn= 1.96D-03
 Coeff-Com: -0.464D+00 0.146D+01
 Coeff-En:   0.000D+00 0.100D+01
 Coeff:     -0.463D+00 0.146D+01
 Gap=     0.371 Goal=   None    Shift=    0.000
 RMSDP=2.25D-04 MaxDP=1.03D-03 DE=-2.33D-05 OVMax= 1.81D-03

 Cycle   3  Pass 1  IDiag  3:
 E=-0.895610575382193E-01 Delta-E=       -0.000004425851 Rises=F Damp=F
 DIIS: error= 3.08D-05 at cycle   3 NSaved=   3.
 NSaved= 3 IEnMin= 3 EnMin=-0.895610575382193E-01 IErMin= 3 ErrMin= 3.08D-05
 ErrMax= 3.08D-05  0.00D+00 EMaxC= 1.00D-01 BMatC= 2.69D-08 BMatP= 7.01D-07
 IDIUse=1 WtCom= 1.00D+00 WtEn= 0.00D+00
 Coeff-Com:  0.169D+00-0.656D+00 0.149D+01
 Coeff:      0.169D+00-0.656D+00 0.149D+01
 Gap=     0.371 Goal=   None    Shift=    0.000
 RMSDP=4.85D-05 MaxDP=1.91D-04 DE=-4.43D-06 OVMax= 3.98D-04

 Cycle   4  Pass 1  IDiag  3:
 E=-0.895612182260805E-01 Delta-E=       -0.000000160688 Rises=F Damp=F
 DIIS: error= 9.63D-07 at cycle   4 NSaved=   4.
 NSaved= 4 IEnMin= 4 EnMin=-0.895612182260805E-01 IErMin= 4 ErrMin= 9.63D-07
 ErrMax= 9.63D-07  0.00D+00 EMaxC= 1.00D-01 BMatC= 4.46D-11 BMatP= 2.69D-08
 IDIUse=1 WtCom= 1.00D+00 WtEn= 0.00D+00
 Coeff-Com: -0.744D-01 0.290D+00-0.660D+00 0.144D+01
 Coeff:     -0.744D-01 0.290D+00-0.660D+00 0.144D+01
 Gap=     0.371 Goal=   None    Shift=    0.000
 RMSDP=1.55D-06 MaxDP=4.88D-06 DE=-1.61D-07 OVMax= 9.39D-06

 Cycle   5  Pass 1  IDiag  3:
 E=-0.895612184903314E-01 Delta-E=       -0.000000000264 Rises=F Damp=F
 DIIS: error= 2.87D-07 at cycle   5 NSaved=   5.
 NSaved= 5 IEnMin= 5 EnMin=-0.895612184903314E-01 IErMin= 5 ErrMin= 2.87D-07
 ErrMax= 2.87D-07  0.00D+00 EMaxC= 1.00D-01 BMatC= 3.30D-12 BMatP= 4.46D-11
 IDIUse=1 WtCom= 1.00D+00 WtEn= 0.00D+00
 Coeff-Com:  0.297D-01-0.116D+00 0.264D+00-0.732D+00 0.155D+01
 Coeff:      0.297D-01-0.116D+00 0.264D+00-0.732D+00 0.155D+01
 Gap=     0.371 Goal=   None    Shift=    0.000
 RMSDP=5.34D-07 MaxDP=1.67D-06 DE=-2.64D-10 OVMax= 3.34D-06

 Cycle   6  Pass 1  IDiag  3:
 E=-0.895612185113635E-01 Delta-E=       -0.000000000021 Rises=F Damp=F
 DIIS: error= 3.88D-08 at cycle   6 NSaved=   6.
 NSaved= 6 IEnMin= 6 EnMin=-0.895612185113635E-01 IErMin= 6 ErrMin= 3.88D-08
 ErrMax= 3.88D-08  0.00D+00 EMaxC= 1.00D-01 BMatC= 4.87D-14 BMatP= 3.30D-12
 IDIUse=1 WtCom= 1.00D+00 WtEn= 0.00D+00
 Coeff-Com: -0.149D-01 0.581D-01-0.133D+00 0.383D+00-0.856D+00 0.156D+01
 Coeff:     -0.149D-01 0.581D-01-0.133D+00 0.383D+00-0.856D+00 0.156D+01
 Gap=     0.371 Goal=   None    Shift=    0.000
 RMSDP=5.65D-08 MaxDP=2.27D-07 DE=-2.10D-11 OVMax= 3.12D-07

 Cycle   7  Pass 1  IDiag  3:
 E=-0.895612185115908E-01 Delta-E=        0.000000000000 Rises=F Damp=F
 DIIS: error= 6.23D-09 at cycle   7 NSaved=   7.
 NSaved= 7 IEnMin= 7 EnMin=-0.895612185115908E-01 IErMin= 7 ErrMin= 6.23D-09
 ErrMax= 6.23D-09  0.00D+00 EMaxC= 1.00D-01 BMatC= 1.20D-15 BMatP= 4.87D-14
 IDIUse=1 WtCom= 1.00D+00 WtEn= 0.00D+00
 Coeff-Com:  0.204D-02-0.794D-02 0.182D-01-0.565D-01 0.130D+00-0.315D+00
 Coeff-Com:  0.123D+01
 Coeff:      0.204D-02-0.794D-02 0.182D-01-0.565D-01 0.130D+00-0.315D+00
 Coeff:      0.123D+01
 Gap=     0.371 Goal=   None    Shift=    0.000
 RMSDP=8.73D-09 MaxDP=3.54D-08 DE=-2.27D-13 OVMax= 0.00D+00

 SCF Done:  E(RAM1) = -0.895612185116E-01 A.U. after    7 cycles
            NFock=  7  Conv=0.87D-08     -V/T= 0.9984
 KE=-5.738943244197D+01 PE=-6.408225001204D+01 EE= 5.568413956393D+01
 Leave Link  502 at Fri Nov 10 14:53:16 2017, MaxMem=   134217728 cpu:               0.0 elap:               0.0
 (Enter /n/sw/g16_nehalem/g16/l801.exe)
 Range of M.O.s used for correlation:     1    15
 NBasis=    15 NAE=    11 NBE=    11 NFC=     0 NFV=     0
 NROrb=     15 NOA=    11 NOB=    11 NVA=     4 NVB=     4
 Leave Link  801 at Fri Nov 10 14:53:16 2017, MaxMem=   134217728 cpu:               0.0 elap:               0.0
 (Enter /n/sw/g16_nehalem/g16/l1101.exe)
 Leave Link 1101 at Fri Nov 10 14:53:16 2017, MaxMem=   134217728 cpu:               0.0 elap:               0.0
 (Enter /n/sw/g16_nehalem/g16/l1102.exe)
 Symmetrizing basis deriv contribution to polar:
 IMax=3 JMax=2 DiffMx= 0.00D+00
 Leave Link 1102 at Fri Nov 10 14:53:16 2017, MaxMem=   134217728 cpu:               0.0 elap:               0.0
 (Enter /n/sw/g16_nehalem/g16/l1110.exe)
 Leave Link 1110 at Fri Nov 10 14:53:16 2017, MaxMem=   134217728 cpu:               0.0 elap:               0.0
 (Enter /n/sw/g16_nehalem/g16/l1002.exe)
 Minotr:  Closed shell wavefunction.
 Leave Link 1002 at Fri Nov 10 14:53:16 2017, MaxMem=   134217728 cpu:               0.0 elap:               0.0
 (Enter /n/sw/g16_nehalem/g16/l701.exe)
 ... and contract with generalized density number  0.
 Compute integral first derivatives.
 Leave Link  701 at Fri Nov 10 14:53:16 2017, MaxMem=   134217728 cpu:               0.1 elap:               0.1
 (Enter /n/sw/g16_nehalem/g16/l702.exe)
 L702 exits ... SP integral derivatives will be done elsewhere.
 Leave Link  702 at Fri Nov 10 14:53:16 2017, MaxMem=   134217728 cpu:               0.0 elap:               0.0
 (Enter /n/sw/g16_nehalem/g16/l703.exe)
 Integral derivatives from FoFJK, PRISM(SPDF).
 Compute integral first derivatives, UseDBF=F ICtDFT=           0.
 Calling FoFJK, ICntrl=      2147 FMM=F ISym2X=0 I1Cent= 0 IOpClX= 0 NMat=1 NMatS=1 NMatT=0.
 FoFJK:  IHMeth= 8 ICntrl=    2147 DoSepK=F KAlg= 0 I1Cent=           0 FoldK=F
 IRaf=         0 NMat=       1 IRICut=       1 DoRegI=T DoRafI=F ISym2E= 0 IDoP0=3 IntGTp=3.
 FoFCou: FMM=F IPFlag=           0 FMFlag=      100000 FMFlg1=         800
         NFxFlg=           0 DoJE=F BraDBF=F KetDBF=F FulRan=T
         wScrn=  0.000000 ICntrl=      2147 IOpCl=  0 I1Cent=           0 NGrid=           0
         NMat0=    1 NMatS0=      1 NMatT0=    0 NMatD0=    1 NMtDS0=    0 NMtDT0=    0
 Symmetry not used in FoFCou.
 Leave Link  703 at Fri Nov 10 14:53:16 2017, MaxMem=   134217728 cpu:               0.0 elap:               0.0
 (Enter /n/sw/g16_nehalem/g16/l716.exe)
 Dipole        = 2.50744379D-01 5.12321776D-04 3.93673919D-05
 Polarizability= 0.00000000D+00 0.00000000D+00 0.00000000D+00
                 0.00000000D+00 0.00000000D+00 0.00000000D+00
 -------------------------------------------------------------------
 Center     Atomic                   Forces (Hartrees/Bohr)
 Number     Number              X              Y              Z
 -------------------------------------------------------------------
      1        6           0.004572418    0.000089241   -0.000012862
      2        1          -0.000040039   -0.000033131    0.000051468
      3        1          -0.000037402   -0.000035518   -0.000043557
      4        1          -0.000022190   -0.000032917    0.000002970
      5       17          -0.000393139    0.000001793    0.000000592
      6       17          -0.004079649    0.000010533    0.000001389
 -------------------------------------------------------------------
 Cartesian Forces:  Max     0.004572418 RMS     0.001447696
 Z-matrix is all fixed cartesians, so copy forces.
 Leave Link  716 at Fri Nov 10 14:53:16 2017, MaxMem=   134217728 cpu:               0.0 elap:               0.0
 (Enter /n/sw/g16_nehalem/g16/l123.exe)
 IRC-IRC-IRC-IRC-IRC-IRC-IRC-IRC-IRC-IRC-IRC-IRC-IRC-IRC-IRC-IRC-IRC-IRC
 Pt  1 Step number   1 out of a maximum of  20
 Using modified Bulirsch-Stoer corrector integration.
   Using distance weighted interpolants to fit PES.
 PreDWI: IReCr0= 2 IReCr1= 1 IReCr2= 1 IReCr3= 1
 Modified Bulirsch-Stoer Extrapolation Cycles:
    EPS =    0.000010000000000
    Cycle     1 NS=    48
      PEZero:  N= 2 I= 1 D=  9.31D-05 Err=  2.55D-04
    Cycle     2 NS=    64 Truncation Error =  0.000255341
      PEZero:  N= 3 I= 2 D=  9.31D-05 Err=  1.70D-04
      PEZero:  N= 3 I= 1 D=  1.86D-04 Err=  8.96D-08
    Cycle     3 NS=    96 Truncation Error =  0.000000090
 BS completed in    3 cycles and     208 integration steps.
 Maximum DWI energy   std dev =  0.000022669 at pt    21
 Maximum DWI gradient std dev =  1.939068549 at pt     1
 SUMMARY OF CORRECTOR INTEGRATION:
   Predictor End Point Energy =    -0.089561
   Old End Point Energy       =    -0.089561
   Corrected End Point Energy =    -0.089562
   Predictor End-Start Dist.  =     0.035767
   Old End-Start Dist.        =     0.035767
   New End-Start Dist.        =     0.035713
   New End-Old End Dist.      =     0.001673
 CORRECTOR INTEGRATION CONVERGENCE:
   Recorrection delta-x convergence threshold:    0.010000
   Delta-x Convergence Met
 Point Number:   1          Path Number:   1
                    CURRENT STRUCTURE
                Cartesian Coordinates (Ang):                
 ---------------------------------------------------------------------
 Center     Atomic                     Coordinates (Angstroms)
 Number     Number                        X           Y           Z
 ---------------------------------------------------------------------
      1          6                    0.024982    0.000360    0.000035
      2          1                   -0.002773    0.561960    0.942668
      3          1                   -0.002806    0.536617   -0.957248
      4          1                   -0.003046   -1.096750    0.014647
      5         17                    2.140196   -0.000093   -0.000007
      6         17                   -2.148520   -0.000083   -0.000006
 ---------------------------------------------------------------------
   CHANGE IN THE REACTION COORDINATE =    0.03571
   NET REACTION COORDINATE UP TO THIS POINT =    0.03571
  # OF POINTS ALONG THE PATH =   1
  # OF STEPS =   1

 Calculating another point on the path.
 Point Number  2 in REVERSE path direction.
 Using LQA Reaction Path Following.
   LQA: T_Est iteration completed in    3 iterations.
 IRC-IRC-IRC-IRC-IRC-IRC-IRC-IRC-IRC-IRC-IRC-IRC-IRC-IRC-IRC-IRC-IRC-IRC
 Leave Link  123 at Fri Nov 10 14:53:16 2017, MaxMem=   134217728 cpu:               0.0 elap:               0.0
 (Enter /n/sw/g16_nehalem/g16/l202.exe)
                          Input orientation:                          
 ---------------------------------------------------------------------
 Center     Atomic      Atomic             Coordinates (Angstroms)
 Number     Number       Type             X           Y           Z
 ---------------------------------------------------------------------
      1          6           0        0.029995    0.000369    0.000033
      2          1           0       -0.003316    0.561803    0.942647
      3          1           0       -0.003340    0.536465   -0.957221
      4          1           0       -0.003534   -1.096649    0.014651
      5         17           0        2.139665   -0.000092   -0.000007
      6         17           0       -2.149664   -0.000081   -0.000006
 ---------------------------------------------------------------------
                    Distance matrix (angstroms):
                    1          2          3          4          5
     1  C    0.000000
     2  H    1.097651   0.000000
     3  H    1.097654   1.900037   0.000000
     4  H    1.097628   1.900431   1.900420   0.000000
     5  Cl   2.109670   2.407631   2.407617   2.407479   0.000000
     6  Cl   2.179659   2.410627   2.410570   2.410093   4.289329
                    6
     6  Cl   0.000000
 Symmetry turned off by external request.
 Stoichiometry    CH3Cl2(1-)
 Framework group  C1[X(CH3Cl2)]
 Deg. of freedom    12
 Full point group                 C1      NOp   1
 Rotational constants (GHZ):         138.8638465           1.5621440           1.5621392
 Leave Link  202 at Fri Nov 10 14:53:16 2017, MaxMem=   134217728 cpu:               0.0 elap:               0.0
 (Enter /n/sw/g16_nehalem/g16/l301.exe)
 Standard basis: VSTO-6G (5D, 7F)
 Ernie: Thresh=  0.10000D-02 Tol=  0.10000D-05 Strict=F.
  NNHCO=     0 NNPyr=     0 NCTC=     0               EPep=         0.000000000
    EC=        31.458066209  ECS=         0.475242457   EG=         0.094835114
   EHC=         0.000000000  EAt=       -33.052413022  AtH=         0.613817027
 EPDDG=         0.000000000  ECC=        32.028143780 EAtT=        33.666230050
    15 basis functions,    90 primitive gaussians,    15 cartesian basis functions
    11 alpha electrons       11 beta electrons
       nuclear repulsion energy        65.6943738292 Hartrees.
 IExCor=    0 DFT=F Ex=HF Corr=None ExCW=0 ScaHFX=  1.000000
 ScaDFX=  1.000000  1.000000  1.000000  1.000000 ScalE2=  1.000000  1.000000
 IRadAn=      5 IRanWt=     -1 IRanGd=            0 ICorTp=0 IEmpDi=  4
 Integral buffers will be    131072 words long.
 Regular integral format.
 Two-electron integral symmetry is turned off.
 Leave Link  301 at Fri Nov 10 14:53:16 2017, MaxMem=   134217728 cpu:               0.1 elap:               0.1
 (Enter /n/sw/g16_nehalem/g16/l302.exe)
 Do NDO integrals.
 NPDir=0 NMtPBC=     1 NCelOv=     1 NCel=       1 NClECP=     1 NCelD=      1
         NCelK=      1 NCelE2=     1 NClLst=     1 CellRange=     0.0.
 One-electron integrals computed using PRISM.
 NBasis=    15 RedAO= F EigKep=  0.00D+00  NBF=    15
 NBsUse=    15 1.00D-04 EigRej=  0.00D+00 NBFU=    15
 Leave Link  302 at Fri Nov 10 14:53:17 2017, MaxMem=   134217728 cpu:               0.1 elap:               0.1
 (Enter /n/sw/g16_nehalem/g16/l303.exe)
 DipDrv:  MaxL=1.
 Leave Link  303 at Fri Nov 10 14:53:17 2017, MaxMem=   134217728 cpu:               0.0 elap:               0.0
 (Enter /n/sw/g16_nehalem/g16/l401.exe)
 Initial guess from the checkpoint file:  "/scratch/dhuang9_MeCl_ts_IRC_reverse/Gau-14836.chk"
 B after Tr=     0.000003   -0.000008    0.000001
         Rot=    1.000000    0.000000    0.000000    0.000000 Ang=   0.00 deg.
 Guess basis will be translated and rotated to current coordinates.
 JPrj=0 DoOrth=T DoCkMO=T.
 Leave Link  401 at Fri Nov 10 14:53:17 2017, MaxMem=   134217728 cpu:               0.1 elap:               0.1
 (Enter /n/sw/g16_nehalem/g16/l502.exe)
 Keep J ints in memory in canonical form, NReq=859725.
 FoFCou: FMM=F IPFlag=           0 FMFlag=           0 FMFlg1=           0
         NFxFlg=           0 DoJE=F BraDBF=F KetDBF=F FulRan=T
         wScrn=  0.000000 ICntrl=       600 IOpCl=  2 I1Cent=           0 NGrid=           0
         NMat0=    1 NMatS0=     33 NMatT0=    0 NMatD0=    1 NMtDS0=    0 NMtDT0=    0
 Symmetry not used in FoFCou.
 Two-electron integral symmetry not used.
 Closed shell SCF:
 Using DIIS extrapolation, IDIIS=  1040.
 Overlap will be assumed to be unity.
 NGot=   134217728 LenX=   134156826 LenY=   134155944
 Requested convergence on RMS density matrix=1.00D-08 within 128 cycles.
 Requested convergence on MAX density matrix=1.00D-06.
 Requested convergence on             energy=1.00D-06.
 No special actions if energy rises.

 Cycle   1  Pass 1  IDiag  1:
 E=-0.895924320872723E-01
 DIIS: error= 6.41D-04 at cycle   1 NSaved=   1.
 NSaved= 1 IEnMin= 1 EnMin=-0.895924320872723E-01 IErMin= 1 ErrMin= 6.41D-04
 ErrMax= 6.41D-04  0.00D+00 EMaxC= 1.00D-01 BMatC= 4.85D-06 BMatP= 4.85D-06
 IDIUse=3 WtCom= 9.94D-01 WtEn= 6.41D-03
 Coeff-Com:  0.100D+01
 Coeff-En:   0.100D+01
 Coeff:      0.100D+01
 RMSDP=3.84D-04 MaxDP=1.86D-03              OVMax= 0.00D+00

 Cycle   2  Pass 1  IDiag  3:
 E=-0.896149242321655E-01 Delta-E=       -0.000022492145 Rises=F Damp=F
 DIIS: error= 1.92D-04 at cycle   2 NSaved=   2.
 NSaved= 2 IEnMin= 2 EnMin=-0.896149242321655E-01 IErMin= 2 ErrMin= 1.92D-04
 ErrMax= 1.92D-04  0.00D+00 EMaxC= 1.00D-01 BMatC= 6.75D-07 BMatP= 4.85D-06
 IDIUse=3 WtCom= 9.98D-01 WtEn= 1.92D-03
 Coeff-Com: -0.464D+00 0.146D+01
 Coeff-En:   0.000D+00 0.100D+01
 Coeff:     -0.463D+00 0.146D+01
 Gap=     0.371 Goal=   None    Shift=    0.000
 RMSDP=2.21D-04 MaxDP=1.03D-03 DE=-2.25D-05 OVMax= 1.78D-03

 Cycle   3  Pass 1  IDiag  3:
 E=-0.896191928579100E-01 Delta-E=       -0.000004268626 Rises=F Damp=F
 DIIS: error= 3.08D-05 at cycle   3 NSaved=   3.
 NSaved= 3 IEnMin= 3 EnMin=-0.896191928579100E-01 IErMin= 3 ErrMin= 3.08D-05
 ErrMax= 3.08D-05  0.00D+00 EMaxC= 1.00D-01 BMatC= 2.61D-08 BMatP= 6.75D-07
 IDIUse=1 WtCom= 1.00D+00 WtEn= 0.00D+00
 Coeff-Com:  0.169D+00-0.657D+00 0.149D+01
 Coeff:      0.169D+00-0.657D+00 0.149D+01
 Gap=     0.371 Goal=   None    Shift=    0.000
 RMSDP=4.78D-05 MaxDP=1.93D-04 DE=-4.27D-06 OVMax= 3.90D-04

 Cycle   4  Pass 1  IDiag  3:
 E=-0.896193492175570E-01 Delta-E=       -0.000000156360 Rises=F Damp=F
 DIIS: error= 1.27D-06 at cycle   4 NSaved=   4.
 NSaved= 4 IEnMin= 4 EnMin=-0.896193492175570E-01 IErMin= 4 ErrMin= 1.27D-06
 ErrMax= 1.27D-06  0.00D+00 EMaxC= 1.00D-01 BMatC= 6.81D-11 BMatP= 2.61D-08
 IDIUse=1 WtCom= 1.00D+00 WtEn= 0.00D+00
 Coeff-Com: -0.782D-01 0.305D+00-0.694D+00 0.147D+01
 Coeff:     -0.782D-01 0.305D+00-0.694D+00 0.147D+01
 Gap=     0.371 Goal=   None    Shift=    0.000
 RMSDP=1.83D-06 MaxDP=5.97D-06 DE=-1.56D-07 OVMax= 1.20D-05

 Cycle   5  Pass 1  IDiag  3:
 E=-0.896193496030406E-01 Delta-E=       -0.000000000385 Rises=F Damp=F
 DIIS: error= 5.06D-07 at cycle   5 NSaved=   5.
 NSaved= 5 IEnMin= 5 EnMin=-0.896193496030406E-01 IErMin= 5 ErrMin= 5.06D-07
 ErrMax= 5.06D-07  0.00D+00 EMaxC= 1.00D-01 BMatC= 6.75D-12 BMatP= 6.81D-11
 IDIUse=1 WtCom= 1.00D+00 WtEn= 0.00D+00
 Coeff-Com:  0.355D-01-0.138D+00 0.316D+00-0.820D+00 0.161D+01
 Coeff:      0.355D-01-0.138D+00 0.316D+00-0.820D+00 0.161D+01
 Gap=     0.371 Goal=   None    Shift=    0.000
 RMSDP=7.68D-07 MaxDP=2.53D-06 DE=-3.85D-10 OVMax= 4.10D-06

 Cycle   6  Pass 1  IDiag  3:
 E=-0.896193496474780E-01 Delta-E=       -0.000000000044 Rises=F Damp=F
 DIIS: error= 5.87D-08 at cycle   6 NSaved=   6.
 NSaved= 6 IEnMin= 6 EnMin=-0.896193496474780E-01 IErMin= 6 ErrMin= 5.87D-08
 ErrMax= 5.87D-08  0.00D+00 EMaxC= 1.00D-01 BMatC= 1.38D-13 BMatP= 6.75D-12
 IDIUse=1 WtCom= 1.00D+00 WtEn= 0.00D+00
 Coeff-Com: -0.165D-01 0.642D-01-0.146D+00 0.398D+00-0.843D+00 0.154D+01
 Coeff:     -0.165D-01 0.642D-01-0.146D+00 0.398D+00-0.843D+00 0.154D+01
 Gap=     0.371 Goal=   None    Shift=    0.000
 RMSDP=1.12D-07 MaxDP=4.80D-07 DE=-4.44D-11 OVMax= 6.26D-07

 Cycle   7  Pass 1  IDiag  3:
 E=-0.896193496485438E-01 Delta-E=       -0.000000000001 Rises=F Damp=F
 DIIS: error= 1.60D-08 at cycle   7 NSaved=   7.
 NSaved= 7 IEnMin= 7 EnMin=-0.896193496485438E-01 IErMin= 7 ErrMin= 1.60D-08
 ErrMax= 1.60D-08  0.00D+00 EMaxC= 1.00D-01 BMatC= 5.88D-15 BMatP= 1.38D-13
 IDIUse=1 WtCom= 1.00D+00 WtEn= 0.00D+00
 Coeff-Com:  0.624D-02-0.243D-01 0.556D-01-0.156D+00 0.336D+00-0.720D+00
 Coeff-Com:  0.150D+01
 Coeff:      0.624D-02-0.243D-01 0.556D-01-0.156D+00 0.336D+00-0.720D+00
 Coeff:      0.150D+01
 Gap=     0.371 Goal=   None    Shift=    0.000
 RMSDP=2.64D-08 MaxDP=1.39D-07 DE=-1.07D-12 OVMax= 1.96D-07

 Cycle   8  Pass 1  IDiag  3:
 E=-0.896193496484727E-01 Delta-E=        0.000000000000 Rises=F Damp=F
 DIIS: error= 4.15D-09 at cycle   8 NSaved=   8.
 NSaved= 8 IEnMin= 7 EnMin=-0.896193496485438E-01 IErMin= 8 ErrMin= 4.15D-09
 ErrMax= 4.15D-09  0.00D+00 EMaxC= 1.00D-01 BMatC= 2.50D-16 BMatP= 5.88D-15
 IDIUse=1 WtCom= 1.00D+00 WtEn= 0.00D+00
 Coeff-Com: -0.292D-03 0.114D-02-0.262D-02 0.827D-02-0.183D-01 0.492D-01
 Coeff-Com: -0.284D+00 0.125D+01
 Coeff:     -0.292D-03 0.114D-02-0.262D-02 0.827D-02-0.183D-01 0.492D-01
 Coeff:     -0.284D+00 0.125D+01
 Gap=     0.371 Goal=   None    Shift=    0.000
 RMSDP=5.65D-09 MaxDP=3.35D-08 DE= 7.11D-14 OVMax= 4.53D-08

 Cycle   9  Pass 2  IDiag  1:
 SCF Done:  E(RAM1) = -0.896193496485E-01 A.U. after    9 cycles
            NFock=  8  Conv=0.56D-08     -V/T= 0.9984
 KE=-5.738919303950D+01 PE=-6.407508530290D+01 EE= 5.568028516350D+01
 Leave Link  502 at Fri Nov 10 14:53:17 2017, MaxMem=   134217728 cpu:               0.1 elap:               0.0
 (Enter /n/sw/g16_nehalem/g16/l801.exe)
 Range of M.O.s used for correlation:     1    15
 NBasis=    15 NAE=    11 NBE=    11 NFC=     0 NFV=     0
 NROrb=     15 NOA=    11 NOB=    11 NVA=     4 NVB=     4
 Leave Link  801 at Fri Nov 10 14:53:17 2017, MaxMem=   134217728 cpu:               0.0 elap:               0.0
 (Enter /n/sw/g16_nehalem/g16/l1101.exe)
 Leave Link 1101 at Fri Nov 10 14:53:17 2017, MaxMem=   134217728 cpu:               0.0 elap:               0.0
 (Enter /n/sw/g16_nehalem/g16/l1102.exe)
 Symmetrizing basis deriv contribution to polar:
 IMax=3 JMax=2 DiffMx= 0.00D+00
 Leave Link 1102 at Fri Nov 10 14:53:17 2017, MaxMem=   134217728 cpu:               0.0 elap:               0.0
 (Enter /n/sw/g16_nehalem/g16/l1110.exe)
 Leave Link 1110 at Fri Nov 10 14:53:17 2017, MaxMem=   134217728 cpu:               0.0 elap:               0.0
 (Enter /n/sw/g16_nehalem/g16/l1002.exe)
 Minotr:  Closed shell wavefunction.
 Leave Link 1002 at Fri Nov 10 14:53:17 2017, MaxMem=   134217728 cpu:               0.0 elap:               0.0
 (Enter /n/sw/g16_nehalem/g16/l701.exe)
 ... and contract with generalized density number  0.
 Compute integral first derivatives.
 Leave Link  701 at Fri Nov 10 14:53:17 2017, MaxMem=   134217728 cpu:               0.1 elap:               0.1
 (Enter /n/sw/g16_nehalem/g16/l702.exe)
 L702 exits ... SP integral derivatives will be done elsewhere.
 Leave Link  702 at Fri Nov 10 14:53:17 2017, MaxMem=   134217728 cpu:               0.0 elap:               0.0
 (Enter /n/sw/g16_nehalem/g16/l703.exe)
 Integral derivatives from FoFJK, PRISM(SPDF).
 Compute integral first derivatives, UseDBF=F ICtDFT=           0.
 Calling FoFJK, ICntrl=      2147 FMM=F ISym2X=0 I1Cent= 0 IOpClX= 0 NMat=1 NMatS=1 NMatT=0.
 FoFJK:  IHMeth= 8 ICntrl=    2147 DoSepK=F KAlg= 0 I1Cent=           0 FoldK=F
 IRaf=         0 NMat=       1 IRICut=       1 DoRegI=T DoRafI=F ISym2E= 0 IDoP0=3 IntGTp=3.
 FoFCou: FMM=F IPFlag=           0 FMFlag=      100000 FMFlg1=         800
         NFxFlg=           0 DoJE=F BraDBF=F KetDBF=F FulRan=T
         wScrn=  0.000000 ICntrl=      2147 IOpCl=  0 I1Cent=           0 NGrid=           0
         NMat0=    1 NMatS0=      1 NMatT0=    0 NMatD0=    1 NMtDS0=    0 NMtDT0=    0
 Symmetry not used in FoFCou.
 Leave Link  703 at Fri Nov 10 14:53:17 2017, MaxMem=   134217728 cpu:               0.0 elap:               0.0
 (Enter /n/sw/g16_nehalem/g16/l716.exe)
 Dipole        = 3.00608387D-01 5.00560757D-04 3.90897132D-05
 Polarizability= 0.00000000D+00 0.00000000D+00 0.00000000D+00
                 0.00000000D+00 0.00000000D+00 0.00000000D+00
 -------------------------------------------------------------------
 Center     Atomic                   Forces (Hartrees/Bohr)
 Number     Number              X              Y              Z
 -------------------------------------------------------------------
      1        6           0.005468604    0.000034820   -0.000005382
      2        1          -0.000047152   -0.000033413   -0.000000374
      3        1          -0.000045629   -0.000032881    0.000002944
      4        1          -0.000035533    0.000015752    0.000001057
      5       17          -0.000889139    0.000005374    0.000000669
      6       17          -0.004451152    0.000010347    0.000001085
 -------------------------------------------------------------------
 Cartesian Forces:  Max     0.005468604 RMS     0.001675284
 Z-matrix is all fixed cartesians, so copy forces.
 Leave Link  716 at Fri Nov 10 14:53:17 2017, MaxMem=   134217728 cpu:               0.0 elap:               0.0
 (Enter /n/sw/g16_nehalem/g16/l123.exe)
 IRC-IRC-IRC-IRC-IRC-IRC-IRC-IRC-IRC-IRC-IRC-IRC-IRC-IRC-IRC-IRC-IRC-IRC
 Pt  2 Step number   1 out of a maximum of  20
 Using modified Bulirsch-Stoer corrector integration.
   Using distance weighted interpolants to fit PES.
 PreDWI: IReCr0= 2 IReCr1= 1 IReCr2= 1 IReCr3= 1
 Modified Bulirsch-Stoer Extrapolation Cycles:
    EPS =    0.000010000000000
    Cycle     1 NS=    48
      PEZero:  N= 2 I= 1 D=  1.86D-04 Err=  1.76D-05
    Cycle     2 NS=    64 Truncation Error =  0.000017632
      PEZero:  N= 3 I= 2 D=  1.86D-04 Err=  1.18D-05
      PEZero:  N= 3 I= 1 D=  3.72D-04 Err=  2.51D-08
    Cycle     3 NS=    96 Truncation Error =  0.000000025
 BS completed in    3 cycles and     208 integration steps.
 Maximum DWI energy   std dev =  0.000000233 at pt    53
 Maximum DWI gradient std dev =  0.037001193 at pt    38
 SUMMARY OF CORRECTOR INTEGRATION:
   Predictor End Point Energy =    -0.089619
   Old End Point Energy       =    -0.089619
   Corrected End Point Energy =    -0.089620
   Predictor End-Start Dist.  =     0.035757
   Old End-Start Dist.        =     0.035757
   New End-Start Dist.        =     0.035737
   New End-Old End Dist.      =     0.001597
 CORRECTOR INTEGRATION CONVERGENCE:
   Recorrection delta-x convergence threshold:    0.010000
   Delta-x Convergence Met
 Point Number:   2          Path Number:   1
                    CURRENT STRUCTURE
                Cartesian Coordinates (Ang):                
 ---------------------------------------------------------------------
 Center     Atomic                     Coordinates (Angstroms)
 Number     Number                        X           Y           Z
 ---------------------------------------------------------------------
      1          6                    0.029957    0.000377    0.000032
      2          1                   -0.003311    0.561737    0.942674
      3          1                   -0.003332    0.536400   -0.957244
      4          1                   -0.003499   -1.096638    0.014655
      5         17                    2.139770   -0.000092   -0.000007
      6         17                   -2.149757   -0.000081   -0.000006
 ---------------------------------------------------------------------
   CHANGE IN THE REACTION COORDINATE =    0.03574
   NET REACTION COORDINATE UP TO THIS POINT =    0.07145
  # OF POINTS ALONG THE PATH =   2
  # OF STEPS =   1

 Calculating another point on the path.
 Point Number  3 in REVERSE path direction.
 Using LQA Reaction Path Following.
   LQA: T_Est iteration completed in    3 iterations.
 IRC-IRC-IRC-IRC-IRC-IRC-IRC-IRC-IRC-IRC-IRC-IRC-IRC-IRC-IRC-IRC-IRC-IRC
 Leave Link  123 at Fri Nov 10 14:53:17 2017, MaxMem=   134217728 cpu:               0.0 elap:               0.0
 (Enter /n/sw/g16_nehalem/g16/l202.exe)
                          Input orientation:                          
 ---------------------------------------------------------------------
 Center     Atomic      Atomic             Coordinates (Angstroms)
 Number     Number       Type             X           Y           Z
 ---------------------------------------------------------------------
      1          6           0        0.034834    0.000387    0.000030
      2          1           0       -0.003872    0.561495    0.942672
      3          1           0       -0.003880    0.536167   -0.957232
      4          1           0       -0.003955   -1.096521    0.014661
      5         17           0        2.139560   -0.000089   -0.000007
      6         17           0       -2.151172   -0.000077   -0.000006
 ---------------------------------------------------------------------
                    Distance matrix (angstroms):
                    1          2          3          4          5
     1  C    0.000000
     2  H    1.097686   0.000000
     3  H    1.097684   1.900073   0.000000
     4  H    1.097691   1.900059   1.900066   0.000000
     5  Cl   2.104726   2.407970   2.407942   2.407703   0.000000
     6  Cl   2.186006   2.411410   2.411370   2.411005   4.290732
                    6
     6  Cl   0.000000
 Symmetry turned off by external request.
 Stoichiometry    CH3Cl2(1-)
 Framework group  C1[X(CH3Cl2)]
 Deg. of freedom    12
 Full point group                 C1      NOp   1
 Rotational constants (GHZ):         138.8975077           1.5611075           1.5611073
 Leave Link  202 at Fri Nov 10 14:53:17 2017, MaxMem=   134217728 cpu:               0.0 elap:               0.0
 (Enter /n/sw/g16_nehalem/g16/l301.exe)
 Standard basis: VSTO-6G (5D, 7F)
 Ernie: Thresh=  0.10000D-02 Tol=  0.10000D-05 Strict=F.
  NNHCO=     0 NNPyr=     0 NCTC=     0               EPep=         0.000000000
    EC=        31.451954549  ECS=         0.475159275   EG=         0.094785256
   EHC=         0.000000000  EAt=       -33.052413022  AtH=         0.613817027
 EPDDG=         0.000000000  ECC=        32.021899081 EAtT=        33.666230050
    15 basis functions,    90 primitive gaussians,    15 cartesian basis functions
    11 alpha electrons       11 beta electrons
       nuclear repulsion energy        65.6881291303 Hartrees.
 IExCor=    0 DFT=F Ex=HF Corr=None ExCW=0 ScaHFX=  1.000000
 ScaDFX=  1.000000  1.000000  1.000000  1.000000 ScalE2=  1.000000  1.000000
 IRadAn=      5 IRanWt=     -1 IRanGd=            0 ICorTp=0 IEmpDi=  4
 Integral buffers will be    131072 words long.
 Regular integral format.
 Two-electron integral symmetry is turned off.
 Leave Link  301 at Fri Nov 10 14:53:17 2017, MaxMem=   134217728 cpu:               0.1 elap:               0.1
 (Enter /n/sw/g16_nehalem/g16/l302.exe)
 Do NDO integrals.
 NPDir=0 NMtPBC=     1 NCelOv=     1 NCel=       1 NClECP=     1 NCelD=      1
         NCelK=      1 NCelE2=     1 NClLst=     1 CellRange=     0.0.
 One-electron integrals computed using PRISM.
 NBasis=    15 RedAO= F EigKep=  0.00D+00  NBF=    15
 NBsUse=    15 1.00D-04 EigRej=  0.00D+00 NBFU=    15
 Leave Link  302 at Fri Nov 10 14:53:18 2017, MaxMem=   134217728 cpu:               0.1 elap:               0.1
 (Enter /n/sw/g16_nehalem/g16/l303.exe)
 DipDrv:  MaxL=1.
 Leave Link  303 at Fri Nov 10 14:53:18 2017, MaxMem=   134217728 cpu:               0.0 elap:               0.0
 (Enter /n/sw/g16_nehalem/g16/l401.exe)
 Initial guess from the checkpoint file:  "/scratch/dhuang9_MeCl_ts_IRC_reverse/Gau-14836.chk"
 B after Tr=     0.000005   -0.000011    0.000001
         Rot=    1.000000    0.000000    0.000000    0.000000 Ang=   0.00 deg.
 Guess basis will be translated and rotated to current coordinates.
 JPrj=0 DoOrth=T DoCkMO=T.
 Leave Link  401 at Fri Nov 10 14:53:18 2017, MaxMem=   134217728 cpu:               0.1 elap:               0.1
 (Enter /n/sw/g16_nehalem/g16/l502.exe)
 Keep J ints in memory in canonical form, NReq=859725.
 FoFCou: FMM=F IPFlag=           0 FMFlag=           0 FMFlg1=           0
         NFxFlg=           0 DoJE=F BraDBF=F KetDBF=F FulRan=T
         wScrn=  0.000000 ICntrl=       600 IOpCl=  2 I1Cent=           0 NGrid=           0
         NMat0=    1 NMatS0=     33 NMatT0=    0 NMatD0=    1 NMtDS0=    0 NMtDT0=    0
 Symmetry not used in FoFCou.
 Two-electron integral symmetry not used.
 Closed shell SCF:
 Using DIIS extrapolation, IDIIS=  1040.
 Overlap will be assumed to be unity.
 NGot=   134217728 LenX=   134156826 LenY=   134155944
 Requested convergence on RMS density matrix=1.00D-08 within 128 cycles.
 Requested convergence on MAX density matrix=1.00D-06.
 Requested convergence on             energy=1.00D-06.
 No special actions if energy rises.

 Cycle   1  Pass 1  IDiag  1:
 E=-0.896616166294990E-01
 DIIS: error= 6.20D-04 at cycle   1 NSaved=   1.
 NSaved= 1 IEnMin= 1 EnMin=-0.896616166294990E-01 IErMin= 1 ErrMin= 6.20D-04
 ErrMax= 6.20D-04  0.00D+00 EMaxC= 1.00D-01 BMatC= 4.53D-06 BMatP= 4.53D-06
 IDIUse=3 WtCom= 9.94D-01 WtEn= 6.20D-03
 Coeff-Com:  0.100D+01
 Coeff-En:   0.100D+01
 Coeff:      0.100D+01
 RMSDP=3.72D-04 MaxDP=1.82D-03              OVMax= 0.00D+00

 Cycle   2  Pass 1  IDiag  3:
 E=-0.896826656244230E-01 Delta-E=       -0.000021048995 Rises=F Damp=F
 DIIS: error= 1.86D-04 at cycle   2 NSaved=   2.
 NSaved= 2 IEnMin= 2 EnMin=-0.896826656244230E-01 IErMin= 2 ErrMin= 1.86D-04
 ErrMax= 1.86D-04  0.00D+00 EMaxC= 1.00D-01 BMatC= 6.33D-07 BMatP= 4.53D-06
 IDIUse=3 WtCom= 9.98D-01 WtEn= 1.86D-03
 Coeff-Com: -0.465D+00 0.146D+01
 Coeff-En:   0.000D+00 0.100D+01
 Coeff:     -0.464D+00 0.146D+01
 Gap=     0.371 Goal=   None    Shift=    0.000
 RMSDP=2.15D-04 MaxDP=1.02D-03 DE=-2.10D-05 OVMax= 1.73D-03

 Cycle   3  Pass 1  IDiag  3:
 E=-0.896866710018145E-01 Delta-E=       -0.000004005377 Rises=F Damp=F
 DIIS: error= 3.02D-05 at cycle   3 NSaved=   3.
 NSaved= 3 IEnMin= 3 EnMin=-0.896866710018145E-01 IErMin= 3 ErrMin= 3.02D-05
 ErrMax= 3.02D-05  0.00D+00 EMaxC= 1.00D-01 BMatC= 2.45D-08 BMatP= 6.33D-07
 IDIUse=1 WtCom= 1.00D+00 WtEn= 0.00D+00
 Coeff-Com:  0.169D+00-0.656D+00 0.149D+01
 Coeff:      0.169D+00-0.656D+00 0.149D+01
 Gap=     0.371 Goal=   None    Shift=    0.000
 RMSDP=4.64D-05 MaxDP=1.90D-04 DE=-4.01D-06 OVMax= 3.75D-04

 Cycle   4  Pass 1  IDiag  3:
 E=-0.896868182700956E-01 Delta-E=       -0.000000147268 Rises=F Damp=F
 DIIS: error= 1.41D-06 at cycle   4 NSaved=   4.
 NSaved= 4 IEnMin= 4 EnMin=-0.896868182700956E-01 IErMin= 4 ErrMin= 1.41D-06
 ErrMax= 1.41D-06  0.00D+00 EMaxC= 1.00D-01 BMatC= 9.76D-11 BMatP= 2.45D-08
 IDIUse=1 WtCom= 1.00D+00 WtEn= 0.00D+00
 Coeff-Com: -0.980D-01 0.381D+00-0.869D+00 0.159D+01
 Coeff:     -0.980D-01 0.381D+00-0.869D+00 0.159D+01
 Gap=     0.371 Goal=   None    Shift=    0.000
 RMSDP=2.48D-06 MaxDP=7.33D-06 DE=-1.47D-07 OVMax= 1.52D-05

 Cycle   5  Pass 1  IDiag  3:
 E=-0.896868188474542E-01 Delta-E=       -0.000000000577 Rises=F Damp=F
 DIIS: error= 4.33D-07 at cycle   5 NSaved=   5.
 NSaved= 5 IEnMin= 5 EnMin=-0.896868188474542E-01 IErMin= 5 ErrMin= 4.33D-07
 ErrMax= 4.33D-07  0.00D+00 EMaxC= 1.00D-01 BMatC= 5.68D-12 BMatP= 9.76D-11
 IDIUse=1 WtCom= 1.00D+00 WtEn= 0.00D+00
 Coeff-Com:  0.399D-01-0.155D+00 0.355D+00-0.747D+00 0.151D+01
 Coeff:      0.399D-01-0.155D+00 0.355D+00-0.747D+00 0.151D+01
 Gap=     0.371 Goal=   None    Shift=    0.000
 RMSDP=6.60D-07 MaxDP=2.47D-06 DE=-5.77D-10 OVMax= 3.43D-06

 Cycle   6  Pass 1  IDiag  3:
 E=-0.896868188850135E-01 Delta-E=       -0.000000000038 Rises=F Damp=F
 DIIS: error= 9.32D-08 at cycle   6 NSaved=   6.
 NSaved= 6 IEnMin= 6 EnMin=-0.896868188850135E-01 IErMin= 6 ErrMin= 9.32D-08
 ErrMax= 9.32D-08  0.00D+00 EMaxC= 1.00D-01 BMatC= 2.80D-13 BMatP= 5.68D-12
 IDIUse=1 WtCom= 1.00D+00 WtEn= 0.00D+00
 Coeff-Com: -0.181D-01 0.706D-01-0.161D+00 0.357D+00-0.861D+00 0.161D+01
 Coeff:     -0.181D-01 0.706D-01-0.161D+00 0.357D+00-0.861D+00 0.161D+01
 Gap=     0.371 Goal=   None    Shift=    0.000
 RMSDP=1.76D-07 MaxDP=7.99D-07 DE=-3.76D-11 OVMax= 9.17D-07

 Cycle   7  Pass 1  IDiag  3:
 E=-0.896868188869888E-01 Delta-E=       -0.000000000002 Rises=F Damp=F
 DIIS: error= 2.05D-08 at cycle   7 NSaved=   7.
 NSaved= 7 IEnMin= 7 EnMin=-0.896868188869888E-01 IErMin= 7 ErrMin= 2.05D-08
 ErrMax= 2.05D-08  0.00D+00 EMaxC= 1.00D-01 BMatC= 6.81D-15 BMatP= 2.80D-13
 IDIUse=1 WtCom= 1.00D+00 WtEn= 0.00D+00
 Coeff-Com:  0.723D-02-0.281D-01 0.644D-01-0.144D+00 0.348D+00-0.702D+00
 Coeff-Com:  0.145D+01
 Coeff:      0.723D-02-0.281D-01 0.644D-01-0.144D+00 0.348D+00-0.702D+00
 Coeff:      0.145D+01
 Gap=     0.371 Goal=   None    Shift=    0.000
 RMSDP=2.71D-08 MaxDP=1.63D-07 DE=-1.98D-12 OVMax= 1.81D-07

 Cycle   8  Pass 1  IDiag  3:
 E=-0.896868188870741E-01 Delta-E=        0.000000000000 Rises=F Damp=F
 DIIS: error= 6.05D-09 at cycle   8 NSaved=   8.
 NSaved= 8 IEnMin= 8 EnMin=-0.896868188870741E-01 IErMin= 8 ErrMin= 6.05D-09
 ErrMax= 6.05D-09  0.00D+00 EMaxC= 1.00D-01 BMatC= 5.03D-16 BMatP= 6.81D-15
 IDIUse=1 WtCom= 1.00D+00 WtEn= 0.00D+00
 Coeff-Com: -0.703D-03 0.274D-02-0.629D-02 0.146D-01-0.341D-01 0.746D-01
 Coeff-Com: -0.450D+00 0.140D+01
 Coeff:     -0.703D-03 0.274D-02-0.629D-02 0.146D-01-0.341D-01 0.746D-01
 Coeff:     -0.450D+00 0.140D+01
 Gap=     0.371 Goal=   None    Shift=    0.000
 RMSDP=8.85D-09 MaxDP=5.52D-08 DE=-8.53D-14 OVMax= 5.93D-08

 Cycle   9  Pass 2  IDiag  1:
 SCF Done:  E(RAM1) = -0.896868188871E-01 A.U. after    9 cycles
            NFock=  8  Conv=0.88D-08     -V/T= 0.9984
 KE=-5.738905247418D+01 PE=-6.406238328080D+01 EE= 5.567361980582D+01
 Leave Link  502 at Fri Nov 10 14:53:18 2017, MaxMem=   134217728 cpu:               0.0 elap:               0.0
 (Enter /n/sw/g16_nehalem/g16/l801.exe)
 Range of M.O.s used for correlation:     1    15
 NBasis=    15 NAE=    11 NBE=    11 NFC=     0 NFV=     0
 NROrb=     15 NOA=    11 NOB=    11 NVA=     4 NVB=     4
 Leave Link  801 at Fri Nov 10 14:53:18 2017, MaxMem=   134217728 cpu:               0.0 elap:               0.0
 (Enter /n/sw/g16_nehalem/g16/l1101.exe)
 Leave Link 1101 at Fri Nov 10 14:53:18 2017, MaxMem=   134217728 cpu:               0.0 elap:               0.0
 (Enter /n/sw/g16_nehalem/g16/l1102.exe)
 Symmetrizing basis deriv contribution to polar:
 IMax=3 JMax=2 DiffMx= 0.00D+00
 Leave Link 1102 at Fri Nov 10 14:53:18 2017, MaxMem=   134217728 cpu:               0.0 elap:               0.0
 (Enter /n/sw/g16_nehalem/g16/l1110.exe)
 Leave Link 1110 at Fri Nov 10 14:53:18 2017, MaxMem=   134217728 cpu:               0.0 elap:               0.0
 (Enter /n/sw/g16_nehalem/g16/l1002.exe)
 Minotr:  Closed shell wavefunction.
 Leave Link 1002 at Fri Nov 10 14:53:18 2017, MaxMem=   134217728 cpu:               0.0 elap:               0.0
 (Enter /n/sw/g16_nehalem/g16/l701.exe)
 ... and contract with generalized density number  0.
 Compute integral first derivatives.
 Leave Link  701 at Fri Nov 10 14:53:18 2017, MaxMem=   134217728 cpu:               0.1 elap:               0.1
 (Enter /n/sw/g16_nehalem/g16/l702.exe)
 L702 exits ... SP integral derivatives will be done elsewhere.
 Leave Link  702 at Fri Nov 10 14:53:18 2017, MaxMem=   134217728 cpu:               0.0 elap:               0.0
 (Enter /n/sw/g16_nehalem/g16/l703.exe)
 Integral derivatives from FoFJK, PRISM(SPDF).
 Compute integral first derivatives, UseDBF=F ICtDFT=           0.
 Calling FoFJK, ICntrl=      2147 FMM=F ISym2X=0 I1Cent= 0 IOpClX= 0 NMat=1 NMatS=1 NMatT=0.
 FoFJK:  IHMeth= 8 ICntrl=    2147 DoSepK=F KAlg= 0 I1Cent=           0 FoldK=F
 IRaf=         0 NMat=       1 IRICut=       1 DoRegI=T DoRafI=F ISym2E= 0 IDoP0=3 IntGTp=3.
 FoFCou: FMM=F IPFlag=           0 FMFlag=      100000 FMFlg1=         800
         NFxFlg=           0 DoJE=F BraDBF=F KetDBF=F FulRan=T
         wScrn=  0.000000 ICntrl=      2147 IOpCl=  0 I1Cent=           0 NGrid=           0
         NMat0=    1 NMatS0=      1 NMatT0=    0 NMatD0=    1 NMtDS0=    0 NMtDT0=    0
 Symmetry not used in FoFCou.
 Leave Link  703 at Fri Nov 10 14:53:18 2017, MaxMem=   134217728 cpu:               0.0 elap:               0.0
 (Enter /n/sw/g16_nehalem/g16/l716.exe)
 Dipole        = 3.48796762D-01 4.78662872D-04 3.78913407D-05
 Polarizability= 0.00000000D+00 0.00000000D+00 0.00000000D+00
                 0.00000000D+00 0.00000000D+00 0.00000000D+00
 -------------------------------------------------------------------
 Center     Atomic                   Forces (Hartrees/Bohr)
 Number     Number              X              Y              Z
 -------------------------------------------------------------------
      1        6           0.006329947   -0.000025002    0.000000581
      2        1          -0.000048908   -0.000014305   -0.000031545
      3        1          -0.000048800   -0.000012967    0.000030293
      4        1          -0.000046375    0.000032512   -0.000000797
      5       17          -0.001423599    0.000010155    0.000000766
      6       17          -0.004762265    0.000009607    0.000000703
 -------------------------------------------------------------------
 Cartesian Forces:  Max     0.006329947 RMS     0.001897149
 Z-matrix is all fixed cartesians, so copy forces.
 Leave Link  716 at Fri Nov 10 14:53:18 2017, MaxMem=   134217728 cpu:               0.0 elap:               0.0
 (Enter /n/sw/g16_nehalem/g16/l123.exe)
 IRC-IRC-IRC-IRC-IRC-IRC-IRC-IRC-IRC-IRC-IRC-IRC-IRC-IRC-IRC-IRC-IRC-IRC
 Pt  3 Step number   1 out of a maximum of  20
 Using modified Bulirsch-Stoer corrector integration.
   Using distance weighted interpolants to fit PES.
 PreDWI: IReCr0= 2 IReCr1= 1 IReCr2= 1 IReCr3= 1
 Modified Bulirsch-Stoer Extrapolation Cycles:
    EPS =    0.000010000000000
    Cycle     1 NS=    48
      PEZero:  N= 2 I= 1 D=  1.86D-04 Err=  8.19D-06
    Cycle     2 NS=    64 Truncation Error =  0.000008186
 BS completed in    2 cycles and     112 integration steps.
 Maximum DWI energy   std dev =  0.000000283 at pt    31
 Maximum DWI gradient std dev =  0.029254977 at pt    38
 SUMMARY OF CORRECTOR INTEGRATION:
   Predictor End Point Energy =    -0.089687
   Old End Point Energy       =    -0.089687
   Corrected End Point Energy =    -0.089687
   Predictor End-Start Dist.  =     0.035754
   Old End-Start Dist.        =     0.035754
   New End-Start Dist.        =     0.035747
   New End-Old End Dist.      =     0.001281
 CORRECTOR INTEGRATION CONVERGENCE:
   Recorrection delta-x convergence threshold:    0.010000
   Delta-x Convergence Met
 Point Number:   3          Path Number:   1
                    CURRENT STRUCTURE
                Cartesian Coordinates (Ang):                
 ---------------------------------------------------------------------
 Center     Atomic                     Coordinates (Angstroms)
 Number     Number                        X           Y           Z
 ---------------------------------------------------------------------
      1          6                    0.034877    0.000380    0.000030
      2          1                   -0.003837    0.561541    0.942618
      3          1                   -0.003848    0.536213   -0.957183
      4          1                   -0.003945   -1.096501    0.014658
      5         17                    2.139474   -0.000089   -0.000007
      6         17                   -2.151103   -0.000078   -0.000006
 ---------------------------------------------------------------------
   CHANGE IN THE REACTION COORDINATE =    0.03575
   NET REACTION COORDINATE UP TO THIS POINT =    0.10720
  # OF POINTS ALONG THE PATH =   3
  # OF STEPS =   1

 Calculating another point on the path.
 Point Number  4 in REVERSE path direction.
 Using LQA Reaction Path Following.
   LQA: T_Est iteration completed in    3 iterations.
 IRC-IRC-IRC-IRC-IRC-IRC-IRC-IRC-IRC-IRC-IRC-IRC-IRC-IRC-IRC-IRC-IRC-IRC
 Leave Link  123 at Fri Nov 10 14:53:18 2017, MaxMem=   134217728 cpu:               0.0 elap:               0.0
 (Enter /n/sw/g16_nehalem/g16/l202.exe)
                          Input orientation:                          
 ---------------------------------------------------------------------
 Center     Atomic      Atomic             Coordinates (Angstroms)
 Number     Number       Type             X           Y           Z
 ---------------------------------------------------------------------
      1          6           0        0.039848    0.000372    0.000029
      2          1           0       -0.004323    0.561437    0.942502
      3          1           0       -0.004332    0.536112   -0.957066
      4          1           0       -0.004401   -1.096365    0.014656
      5         17           0        2.139062   -0.000087   -0.000007
      6         17           0       -2.152356   -0.000075   -0.000006
[...]
 NSaved= 3 IEnMin= 3 EnMin=-0.103887055422433     IErMin= 3 ErrMin= 3.68D-06
 ErrMax= 3.68D-06  0.00D+00 EMaxC= 1.00D-01 BMatC= 1.86D-10 BMatP= 5.57D-09
 IDIUse=1 WtCom= 1.00D+00 WtEn= 0.00D+00
 Coeff-Com:  0.188D+00-0.667D+00 0.148D+01
 Coeff:      0.188D+00-0.667D+00 0.148D+01
 Gap=     0.327 Goal=   None    Shift=    0.000
 RMSDP=5.22D-06 MaxDP=3.90D-05 DE=-4.80D-08 OVMax= 4.89D-05

 Cycle   4  Pass 1  IDiag  3:
 E=-0.103887056903176     Delta-E=       -0.000000001481 Rises=F Damp=F
 DIIS: error= 5.27D-07 at cycle   4 NSaved=   4.
 NSaved= 4 IEnMin= 4 EnMin=-0.103887056903176     IErMin= 4 ErrMin= 5.27D-07
 ErrMax= 5.27D-07  0.00D+00 EMaxC= 1.00D-01 BMatC= 5.59D-12 BMatP= 1.86D-10
 IDIUse=1 WtCom= 1.00D+00 WtEn= 0.00D+00
 Coeff-Com: -0.107D+00 0.382D+00-0.892D+00 0.162D+01
 Coeff:     -0.107D+00 0.382D+00-0.892D+00 0.162D+01
 Gap=     0.327 Goal=   None    Shift=    0.000
 RMSDP=6.36D-07 MaxDP=3.54D-06 DE=-1.48D-09 OVMax= 3.57D-06

 Cycle   5  Pass 1  IDiag  3:
 E=-0.103887056937552     Delta-E=       -0.000000000034 Rises=F Damp=F
 DIIS: error= 6.97D-08 at cycle   5 NSaved=   5.
 NSaved= 5 IEnMin= 5 EnMin=-0.103887056937552     IErMin= 5 ErrMin= 6.97D-08
 ErrMax= 6.97D-08  0.00D+00 EMaxC= 1.00D-01 BMatC= 1.55D-13 BMatP= 5.59D-12
 IDIUse=1 WtCom= 1.00D+00 WtEn= 0.00D+00
 Coeff-Com:  0.361D-01-0.130D+00 0.310D+00-0.665D+00 0.145D+01
 Coeff:      0.361D-01-0.130D+00 0.310D+00-0.665D+00 0.145D+01
 Gap=     0.327 Goal=   None    Shift=    0.000
 RMSDP=9.70D-08 MaxDP=5.61D-07 DE=-3.44D-11 OVMax= 4.10D-07

 Cycle   6  Pass 1  IDiag  3:
 E=-0.103887056938376     Delta-E=       -0.000000000001 Rises=F Damp=F
 DIIS: error= 7.27D-09 at cycle   6 NSaved=   6.
 NSaved= 6 IEnMin= 6 EnMin=-0.103887056938376     IErMin= 6 ErrMin= 7.27D-09
 ErrMax= 7.27D-09  0.00D+00 EMaxC= 1.00D-01 BMatC= 2.37D-15 BMatP= 1.55D-13
 IDIUse=1 WtCom= 1.00D+00 WtEn= 0.00D+00
 Coeff-Com: -0.172D-01 0.620D-01-0.147D+00 0.321D+00-0.741D+00 0.152D+01
 Coeff:     -0.172D-01 0.620D-01-0.147D+00 0.321D+00-0.741D+00 0.152D+01
 Gap=     0.327 Goal=   None    Shift=    0.000
 RMSDP=1.24D-08 MaxDP=4.81D-08 DE=-8.24D-13 OVMax= 7.48D-08

 Cycle   7  Pass 1  IDiag  3:
 E=-0.103887056938376     Delta-E=        0.000000000000 Rises=F Damp=F
 DIIS: error= 2.57D-09 at cycle   7 NSaved=   7.
 NSaved= 7 IEnMin= 6 EnMin=-0.103887056938376     IErMin= 7 ErrMin= 2.57D-09
 ErrMax= 2.57D-09  0.00D+00 EMaxC= 1.00D-01 BMatC= 1.15D-16 BMatP= 2.37D-15
 IDIUse=1 WtCom= 1.00D+00 WtEn= 0.00D+00
 Coeff-Com:  0.123D-01-0.443D-01 0.105D+00-0.229D+00 0.532D+00-0.118D+01
 Coeff-Com:  0.180D+01
 Coeff:      0.123D-01-0.443D-01 0.105D+00-0.229D+00 0.532D+00-0.118D+01
 Coeff:      0.180D+01
 Gap=     0.327 Goal=   None    Shift=    0.000
 RMSDP=3.84D-09 MaxDP=1.99D-08 DE= 0.00D+00 OVMax= 3.27D-08

 Cycle   8  Pass 2  IDiag  1:
 SCF Done:  E(RAM1) = -0.103887056938     A.U. after    8 cycles
            NFock=  7  Conv=0.38D-08     -V/T= 0.9982
 KE=-5.725916761941D+01 PE=-6.168721138158D+01 EE= 5.428447046149D+01
 Leave Link  502 at Fri Nov 10 14:55:18 2017, MaxMem=   134217728 cpu:               0.0 elap:               0.0
 (Enter /n/sw/g16_nehalem/g16/l801.exe)
 Range of M.O.s used for correlation:     1    15
 NBasis=    15 NAE=    11 NBE=    11 NFC=     0 NFV=     0
 NROrb=     15 NOA=    11 NOB=    11 NVA=     4 NVB=     4
 Leave Link  801 at Fri Nov 10 14:55:19 2017, MaxMem=   134217728 cpu:               0.0 elap:               0.0
 (Enter /n/sw/g16_nehalem/g16/l1101.exe)
 Leave Link 1101 at Fri Nov 10 14:55:19 2017, MaxMem=   134217728 cpu:               0.0 elap:               0.0
 (Enter /n/sw/g16_nehalem/g16/l1102.exe)
 Symmetrizing basis deriv contribution to polar:
 IMax=3 JMax=2 DiffMx= 0.00D+00
 Leave Link 1102 at Fri Nov 10 14:55:19 2017, MaxMem=   134217728 cpu:               0.0 elap:               0.0
 (Enter /n/sw/g16_nehalem/g16/l1110.exe)
 Leave Link 1110 at Fri Nov 10 14:55:19 2017, MaxMem=   134217728 cpu:               0.0 elap:               0.0
 (Enter /n/sw/g16_nehalem/g16/l1002.exe)
 Minotr:  Closed shell wavefunction.
 Leave Link 1002 at Fri Nov 10 14:55:19 2017, MaxMem=   134217728 cpu:               0.0 elap:               0.0
 (Enter /n/sw/g16_nehalem/g16/l701.exe)
 ... and contract with generalized density number  0.
 Compute integral first derivatives.
 Leave Link  701 at Fri Nov 10 14:55:19 2017, MaxMem=   134217728 cpu:               0.1 elap:               0.1
 (Enter /n/sw/g16_nehalem/g16/l702.exe)
 L702 exits ... SP integral derivatives will be done elsewhere.
 Leave Link  702 at Fri Nov 10 14:55:19 2017, MaxMem=   134217728 cpu:               0.0 elap:               0.0
 (Enter /n/sw/g16_nehalem/g16/l703.exe)
 Integral derivatives from FoFJK, PRISM(SPDF).
 Compute integral first derivatives, UseDBF=F ICtDFT=           0.
 Calling FoFJK, ICntrl=      2147 FMM=F ISym2X=0 I1Cent= 0 IOpClX= 0 NMat=1 NMatS=1 NMatT=0.
 FoFJK:  IHMeth= 8 ICntrl=    2147 DoSepK=F KAlg= 0 I1Cent=           0 FoldK=F
 IRaf=         0 NMat=       1 IRICut=       1 DoRegI=T DoRafI=F ISym2E= 0 IDoP0=3 IntGTp=3.
 FoFCou: FMM=F IPFlag=           0 FMFlag=      100000 FMFlg1=         800
         NFxFlg=           0 DoJE=F BraDBF=F KetDBF=F FulRan=T
         wScrn=  0.000000 ICntrl=      2147 IOpCl=  0 I1Cent=           0 NGrid=           0
         NMat0=    1 NMatS0=      1 NMatT0=    0 NMatD0=    1 NMtDS0=    0 NMtDT0=    0
 Symmetry not used in FoFCou.
 Leave Link  703 at Fri Nov 10 14:55:19 2017, MaxMem=   134217728 cpu:               0.0 elap:               0.0
 (Enter /n/sw/g16_nehalem/g16/l716.exe)
 Dipole        = 3.27767625D+00 8.14119147D-05 6.17163110D-06
 Polarizability= 0.00000000D+00 0.00000000D+00 0.00000000D+00
                 0.00000000D+00 0.00000000D+00 0.00000000D+00
 -------------------------------------------------------------------
 Center     Atomic                   Forces (Hartrees/Bohr)
 Number     Number              X              Y              Z
 -------------------------------------------------------------------
      1        6           0.000146531   -0.000000454   -0.000000036
      2        1           0.000010670   -0.000000262   -0.000000365
      3        1           0.000010674   -0.000000252    0.000000363
      4        1           0.000010715    0.000000372   -0.000000009
      5       17           0.000399335    0.000000352    0.000000028
      6       17          -0.000577925    0.000000243    0.000000019
 -------------------------------------------------------------------
 Cartesian Forces:  Max     0.000577925 RMS     0.000169194
 Z-matrix is all fixed cartesians, so copy forces.
 Leave Link  716 at Fri Nov 10 14:55:19 2017, MaxMem=   134217728 cpu:               0.0 elap:               0.0
 (Enter /n/sw/g16_nehalem/g16/l123.exe)
 IRC-IRC-IRC-IRC-IRC-IRC-IRC-IRC-IRC-IRC-IRC-IRC-IRC-IRC-IRC-IRC-IRC-IRC
 Pt131 Step number   1 out of a maximum of  20
 Using modified Bulirsch-Stoer corrector integration.
   Using distance weighted interpolants to fit PES.
 PreDWI: IReCr0= 2 IReCr1= 1 IReCr2= 1 IReCr3= 1
 Modified Bulirsch-Stoer Extrapolation Cycles:
    EPS =    0.000010000000000
    Cycle     1 NS=    48
      PEZero:  N= 2 I= 1 D=  1.86D-04 Err=  2.69D-08
    Cycle     2 NS=    64 Truncation Error =  0.000000027
 BS completed in    2 cycles and     112 integration steps.
 Maximum DWI energy   std dev =  0.000000000 at pt    21
 Maximum DWI gradient std dev =  0.000882518 at pt    39
 SUMMARY OF CORRECTOR INTEGRATION:
   Predictor End Point Energy =    -0.103887
   Old End Point Energy       =    -0.103887
   Corrected End Point Energy =    -0.103887
   Predictor End-Start Dist.  =     0.035762
   Old End-Start Dist.        =     0.035762
   New End-Start Dist.        =     0.035762
   New End-Old End Dist.      =     0.000006
 CORRECTOR INTEGRATION CONVERGENCE:
   Recorrection delta-x convergence threshold:    0.010000
   Delta-x Convergence Met
 Point Number: 131          Path Number:   1
                    CURRENT STRUCTURE
                Cartesian Coordinates (Ang):                
 ---------------------------------------------------------------------
 Center     Atomic                     Coordinates (Angstroms)
 Number     Number                        X           Y           Z
 ---------------------------------------------------------------------
      1          6                    0.449966    0.000074    0.000006
      2          1                    0.116106    0.541154    0.908955
      3          1                    0.116099    0.516727   -0.923044
      4          1                    0.116031   -1.057616    0.014110
      5         17                    2.235223   -0.000005    0.000000
      6         17                   -2.399665   -0.000029   -0.000002
 ---------------------------------------------------------------------
   CHANGE IN THE REACTION COORDINATE =    0.03576
   NET REACTION COORDINATE UP TO THIS POINT =    4.68437
  # OF POINTS ALONG THE PATH = 131
  # OF STEPS =   1

 PES minimum detected on this side of the pathway.
    Magnitude of the gradient =      0.0001274
 Calculation of REVERSE path complete.
 Reaction path calculation complete.
 
 Energies reported relative to the TS energy of          -0.089515
 --------------------------------------------------------------------------
    Summary of reaction path following
 --------------------------------------------------------------------------
                        Energy    RxCoord
   1                   -0.01437  -4.68437
   2                   -0.01437  -4.64861
   3                   -0.01436  -4.61285
   4                   -0.01435  -4.57709
   5                   -0.01435  -4.54133
   6                   -0.01434  -4.50557
   7                   -0.01433  -4.46981
   8                   -0.01432  -4.43405
   9                   -0.01431  -4.39829
  10                   -0.01429  -4.36252
  11                   -0.01428  -4.32676
  12                   -0.01426  -4.29100
  13                   -0.01425  -4.25524
  14                   -0.01423  -4.21948
  15                   -0.01421  -4.18372
  16                   -0.01419  -4.14796
  17                   -0.01417  -4.11220
  18                   -0.01415  -4.07644
  19                   -0.01413  -4.04068
  20                   -0.01410  -4.00492
  21                   -0.01408  -3.96916
  22                   -0.01405  -3.93340
  23                   -0.01403  -3.89764
  24                   -0.01400  -3.86188
  25                   -0.01397  -3.82612
  26                   -0.01394  -3.79036
  27                   -0.01390  -3.75460
  28                   -0.01387  -3.71884
  29                   -0.01383  -3.68308
  30                   -0.01380  -3.64732
  31                   -0.01376  -3.61156
  32                   -0.01372  -3.57580
  33                   -0.01368  -3.54004
  34                   -0.01364  -3.50428
  35                   -0.01359  -3.46852
  36                   -0.01355  -3.43276
  37                   -0.01350  -3.39700
  38                   -0.01345  -3.36124
  39                   -0.01340  -3.32548
  40                   -0.01335  -3.28972
  41                   -0.01330  -3.25396
  42                   -0.01325  -3.21820
  43                   -0.01319  -3.18244
  44                   -0.01313  -3.14668
  45                   -0.01307  -3.11092
  46                   -0.01301  -3.07516
  47                   -0.01295  -3.03940
  48                   -0.01289  -3.00364
  49                   -0.01282  -2.96788
  50                   -0.01275  -2.93212
  51                   -0.01269  -2.89636
  52                   -0.01262  -2.86060
  53                   -0.01254  -2.82484
  54                   -0.01247  -2.78908
  55                   -0.01239  -2.75332
  56                   -0.01232  -2.71756
  57                   -0.01224  -2.68180
  58                   -0.01215  -2.64604
  59                   -0.01207  -2.61028
  60                   -0.01199  -2.57452
  61                   -0.01190  -2.53876
  62                   -0.01181  -2.50300
  63                   -0.01172  -2.46724
  64                   -0.01163  -2.43148
  65                   -0.01153  -2.39572
  66                   -0.01144  -2.35996
  67                   -0.01134  -2.32421
  68                   -0.01123  -2.28845
  69                   -0.01113  -2.25269
  70                   -0.01102  -2.21694
  71                   -0.01091  -2.18118
  72                   -0.01080  -2.14543
  73                   -0.01068  -2.10967
  74                   -0.01056  -2.07392
  75                   -0.01043  -2.03816
  76                   -0.01030  -2.00241
  77                   -0.01016  -1.96666
  78                   -0.01001  -1.93090
  79                   -0.00986  -1.89515
  80                   -0.00971  -1.85939
  81                   -0.00955  -1.82363
  82                   -0.00938  -1.78788
  83                   -0.00920  -1.75212
  84                   -0.00902  -1.71636
  85                   -0.00883  -1.68060
  86                   -0.00863  -1.64484
  87                   -0.00843  -1.60909
  88                   -0.00822  -1.57333
  89                   -0.00801  -1.53757
  90                   -0.00779  -1.50181
  91                   -0.00757  -1.46605
  92                   -0.00734  -1.43029
  93                   -0.00711  -1.39453
  94                   -0.00688  -1.35877
  95                   -0.00664  -1.32301
  96                   -0.00640  -1.28725
  97                   -0.00616  -1.25149
  98                   -0.00592  -1.21573
  99                   -0.00567  -1.17997
 100                   -0.00543  -1.14421
 101                   -0.00519  -1.10845
 102                   -0.00495  -1.07269
 103                   -0.00470  -1.03694
 104                   -0.00446  -1.00118
 105                   -0.00423  -0.96542
 106                   -0.00399  -0.92966
 107                   -0.00376  -0.89390
 108                   -0.00353  -0.85814
 109                   -0.00330  -0.82238
 110                   -0.00308  -0.78662
 111                   -0.00287  -0.75086
 112                   -0.00266  -0.71510
 113                   -0.00245  -0.67934
 114                   -0.00225  -0.64358
 115                   -0.00206  -0.60782
 116                   -0.00187  -0.57206
 117                   -0.00169  -0.53630
 118                   -0.00152  -0.50054
 119                   -0.00135  -0.46478
 120                   -0.00120  -0.42902
 121                   -0.00105  -0.39326
 122                   -0.00091  -0.35751
 123                   -0.00077  -0.32175
 124                   -0.00065  -0.28599
 125                   -0.00054  -0.25023
 126                   -0.00043  -0.21447
 127                   -0.00033  -0.17871
 128                   -0.00025  -0.14295
 129                   -0.00017  -0.10720
 130                   -0.00010  -0.07145
 131                   -0.00005  -0.03571
 132                    0.00000   0.00000
 --------------------------------------------------------------------------
 
 Total number of points:                  131
 Total number of gradient calculations:   132
 Total number of Hessian calculations:     14
 IRC-IRC-IRC-IRC-IRC-IRC-IRC-IRC-IRC-IRC-IRC-IRC-IRC-IRC-IRC-IRC-IRC-IRC
 Leave Link  123 at Fri Nov 10 14:55:19 2017, MaxMem=   134217728 cpu:               0.0 elap:               0.0
 (Enter /n/sw/g16_nehalem/g16/l202.exe)
                          Input orientation:                          
 ---------------------------------------------------------------------
 Center     Atomic      Atomic             Coordinates (Angstroms)
 Number     Number       Type             X           Y           Z
 ---------------------------------------------------------------------
      1          6           0        0.449966    0.000074    0.000006
      2          1           0        0.116105    0.541154    0.908954
      3          1           0        0.116097    0.516727   -0.923043
      4          1           0        0.116029   -1.057615    0.014110
      5         17           0        2.235223   -0.000005    0.000000
      6         17           0       -2.399665   -0.000029   -0.000002
 ---------------------------------------------------------------------
                    Distance matrix (angstroms):
                    1          2          3          4          5
     1  C    0.000000
     2  H    1.109242   0.000000
     3  H    1.109242   1.832160   0.000000
     4  H    1.109243   1.832160   1.832160   0.000000
     5  Cl   1.785257   2.368483   2.368484   2.368485   0.000000
     6  Cl   2.849631   2.729135   2.729121   2.728993   4.634888
                    6
     6  Cl   0.000000
 Symmetry turned off by external request.
 This structure is nearly, but not quite of a higher symmetry.
 Consider Symm=Loose if the higher symmetry is desired.
 Stoichiometry    CH3Cl2(1-)
 Framework group  C1[X(CH3Cl2)]
 Deg. of freedom    12
 Full point group                 C1      NOp   1
 Rotational constants (GHZ):         149.3844032           1.3291107           1.3291107
 Leave Link  202 at Fri Nov 10 14:55:19 2017, MaxMem=   134217728 cpu:               0.0 elap:               0.0
 (Enter /n/sw/g16_nehalem/g16/l601.exe)
 Copying SCF densities to generalized density rwf, IOpCl= 0 IROHF=0.

 **********************************************************************

            Population analysis using the SCF density.

 **********************************************************************

 Alpha  occ. eigenvalues --   -1.21701  -0.94332  -0.89641  -0.39740  -0.39740
 Alpha  occ. eigenvalues --   -0.38950  -0.27991  -0.27991  -0.13021  -0.13021
 Alpha  occ. eigenvalues --   -0.12742
 Alpha virt. eigenvalues --    0.19999   0.30906   0.30907   0.32697
          Condensed to atoms (all electrons):
               1          2          3          4          5          6
     1  C    4.099880   0.000000   0.000000   0.000000   0.000000   0.000000
     2  H    0.000000   0.883290   0.000000   0.000000   0.000000   0.000000
     3  H    0.000000   0.000000   0.883289   0.000000   0.000000   0.000000
     4  H    0.000000   0.000000   0.000000   0.883276   0.000000   0.000000
     5  Cl   0.000000   0.000000   0.000000   0.000000   7.272210   0.000000
     6  Cl   0.000000   0.000000   0.000000   0.000000   0.000000   7.978056
 Mulliken charges:
               1
     1  C   -0.099880
     2  H    0.116710
     3  H    0.116711
     4  H    0.116724
     5  Cl  -0.272210
     6  Cl  -0.978056
 Sum of Mulliken charges =  -1.00000
 Mulliken charges with hydrogens summed into heavy atoms:
               1
     1  C    0.250265
     5  Cl  -0.272210
     6  Cl  -0.978056
 APT charges:
               1
     1  C   -0.099880
     2  H    0.116710
     3  H    0.116711
     4  H    0.116724
     5  Cl  -0.272210
     6  Cl  -0.978056
 Sum of APT charges =  -1.00000
 APT charges with hydrogens summed into heavy atoms:
               1
     1  C    0.250265
     5  Cl  -0.272210
     6  Cl  -0.978056
 Charge=             -1.0000 electrons
 Dipole moment (field-independent basis, Debye):
    X=              8.3310    Y=              0.0002    Z=              0.0000  Tot=              8.3310
 N-N= 6.455802148257D+01 E-N=-6.168721137372D+01  KE=-5.725916761941D+01
  Exact polarizability:   0.000   0.000   0.000   0.000   0.000   0.000
 Approx polarizability:  22.323   0.000   4.681   0.000   0.000   4.681
 Leave Link  601 at Fri Nov 10 14:55:19 2017, MaxMem=   134217728 cpu:               0.0 elap:               0.0
 (Enter /n/sw/g16_nehalem/g16/l9999.exe)

 This type of calculation cannot be archived.


 MUD THROWN IS GROUND LOST -- FROM A TEA BAG
 Job cpu time:       0 days  0 hours  1 minutes 53.1 seconds.
 Elapsed time:       0 days  0 hours  1 minutes 46.8 seconds.
 File lengths (MBytes):  RWF=      6 Int=      0 D2E=      0 Chk=      3 Scr=      1
 Normal termination of Gaussian 16 at Fri Nov 10 14:55:19 2017.
