 Entering Gaussian System, Link 0=g16
 Input=MeCl_ts_IRC_forward.gjf
 Output=MeCl_ts_IRC_forward.out
 Initial command:
 /n/sw/g16_nehalem/g16/l1.exe "/scratch/dhuang9_MeCl_ts_IRC_forward/Gau-14856.inp" -scrdir="/scratch/dhuang9_MeCl_ts_IRC_forward/"
 Entering Link 1 = /n/sw/g16_nehalem/g16/l1.exe PID=     14857.
  
 Copyright (c) 1988,1990,1992,1993,1995,1998,2003,2009,2016,
            Gaussian, Inc.  All Rights Reserved.
  
 This is part of the Gaussian(R) 16 program.  It is based on
 the Gaussian(R) 09 system (copyright 2009, Gaussian, Inc.),
 the Gaussian(R) 03 system (copyright 2003, Gaussian, Inc.),
 the Gaussian(R) 98 system (copyright 1998, Gaussian, Inc.),
 the Gaussian(R) 94 system (copyright 1995, Gaussian, Inc.),
 the Gaussian 92(TM) system (copyright 1992, Gaussian, Inc.),
 the Gaussian 90(TM) system (copyright 1990, Gaussian, Inc.),
 the Gaussian 88(TM) system (copyright 1988, Gaussian, Inc.),
 the Gaussian 86(TM) system (copyright 1986, Carnegie Mellon
 University), and the Gaussian 82(TM) system (copyright 1983,
 Carnegie Mellon University). Gaussian is a federally registered
 trademark of Gaussian, Inc.
  
 This software contains proprietary and confidential information,
 including trade secrets, belonging to Gaussian, Inc.
  
 This software is provided under written license and may be
 used, copied, transmitted, or stored only in accord with that
 written license.
  
 The following legend is applicable only to US Government
 contracts under FAR:
  
                    RESTRICTED RIGHTS LEGEND
  
 Use, reproduction and disclosure by the US Government is
 subject to restrictions as set forth in subparagraphs (a)
 and (c) of the Commercial Computer Software - Restricted
 Rights clause in FAR 52.227-19.
  
 Gaussian, Inc.
 340 Quinnipiac St., Bldg. 40, Wallingford CT 06492
  
  
 ---------------------------------------------------------------
 Warning -- This program may not be used in any manner that
 competes with the business of Gaussian, Inc. or will provide
 assistance to any competitor of Gaussian, Inc.  The licensee
 of this program is prohibited from giving any competitor of
 Gaussian, Inc. access to this program.  By using this program,
 the user acknowledges that Gaussian, Inc. is engaged in the
 business of creating and licensing software in the field of
 computational chemistry and represents and warrants to the
 licensee that it is not a competitor of Gaussian, Inc. and that
 it will not use this program in any manner prohibited above.
 ---------------------------------------------------------------
  

 Cite this work as:
 Gaussian 16, Revision A.03,
 M. J. Frisch, G. W. Trucks, H. B. Schlegel, G. E. Scuseria, 
 M. A. Robb, J. R. Cheeseman, G. Scalmani, V. Barone, 
 G. A. Petersson, H. Nakatsuji, X. Li, M. Caricato, A. V. Marenich, 
 J. Bloino, B. G. Janesko, R. Gomperts, B. Mennucci, H. P. Hratchian, 
 J. V. Ortiz, A. F. Izmaylov, J. L. Sonnenberg, D. Williams-Young, 
 F. Ding, F. Lipparini, F. Egidi, J. Goings, B. Peng, A. Petrone, 
 T. Henderson, D. Ranasinghe, V. G. Zakrzewski, J. Gao, N. Rega, 
 G. Zheng, W. Liang, M. Hada, M. Ehara, K. Toyota, R. Fukuda, 
 J. Hasegawa, M. Ishida, T. Nakajima, Y. Honda, O. Kitao, H. Nakai, 
 T. Vreven, K. Throssell, J. A. Montgomery, Jr., J. E. Peralta, 
 F. Ogliaro, M. J. Bearpark, J. J. Heyd, E. N. Brothers, K. N. Kudin, 
 V. N. Staroverov, T. A. Keith, R. Kobayashi, J. Normand, 
 K. Raghavachari, A. P. Rendell, J. C. Burant, S. S. Iyengar, 
 J. Tomasi, M. Cossi, J. M. Millam, M. Klene, C. Adamo, R. Cammi, 
 J. W. Ochterski, R. L. Martin, K. Morokuma, O. Farkas, 
 J. B. Foresman, and D. J. Fox, Gaussian, Inc., Wallingford CT, 2016.
 
 ******************************************
 Gaussian 16:  ES64L-G16RevA.03 25-Dec-2016
                10-Nov-2017 
 ******************************************
 %mem=1GB
 --------------------------------------------------------------
 #p am1 IRC=(forward,calcfc,maxpoints=300,stepsize=1,recalc=10)
 --------------------------------------------------------------
 1/10=4,18=10,22=1,26=1,38=1,39=1,42=300,44=3,71=10,172=1/1,23;
 2/12=2,17=6,18=5,29=1,40=1/2;
 3/5=2,25=1,41=700000,71=2,140=1/1,2,3;
 4/35=1/1;
 5/5=2,35=1,38=5/2;
 8/6=4,10=90,11=11/1;
 11/6=1,8=1,9=11,15=111,16=1/1,2,10;
 10/6=1,13=1/2;
 6/7=2,8=2,9=2,10=2,28=1/1;
 7/10=1,18=20,25=1/1,2,3,16;
 1/10=4,18=10,22=1,26=1,39=1,42=300,44=3,71=10/23(2);
 2/29=1/2;
 99/5=20/99;
 2/29=1/2;
 3/5=2,25=1,41=700000,71=2,135=20,140=1/1,2,3;
 4/5=5,16=3,35=1/1;
 5/5=2,35=1,38=5/2;
 8/6=4,10=90,11=11/1;
 11/6=1,8=1,9=11,15=111,16=1/1,2,10;
 10/6=1,13=1/2;
 7/10=1,18=20,25=1/1,2,3,16;
 1/18=10,22=1,26=1,39=1,42=300,44=3,71=10/23(-8);
 2/29=1/2;
 6/7=2,8=2,9=2,10=2,19=2,28=1/1;
 99/5=20,9=1/99;
 Leave Link    1 at Fri Nov 10 14:53:18 2017, MaxMem=   134217728 cpu:               0.0 elap:               0.1
 (Enter /n/sw/g16_nehalem/g16/l101.exe)
 -------
 MeCl ts
 -------
 Symbolic Z-matrix:
 Charge = -1 Multiplicity = 1
 C                     0.01994   0.00032   0.00004 
 H                    -0.00222   0.56204   0.94267 
 H                    -0.00225   0.5367   -0.95726 
 H                    -0.00252  -1.09683   0.01464 
 Cl                    2.14093  -0.00012  -0.00001 
 Cl                   -2.14755  -0.00011  -0.00001 
 
 ITRead=  0  0  0  0  0  0
 MicOpt= -1 -1 -1 -1 -1 -1
 NAtoms=      6 NQM=        6 NQMF=       0 NMMI=      0 NMMIF=      0
                NMic=       0 NMicF=      0.
                    Isotopes and Nuclear Properties:
 (Nuclear quadrupole moments (NQMom) in fm**2, nuclear magnetic moments (NMagM)
  in nuclear magnetons)

  Atom         1           2           3           4           5           6
 IAtWgt=          12           1           1           1          35          35
 AtmWgt=  12.0000000   1.0078250   1.0078250   1.0078250  34.9688527  34.9688527
 NucSpn=           0           1           1           1           3           3
 AtZEff=   0.0000000   0.0000000   0.0000000   0.0000000   0.0000000   0.0000000
 NQMom=    0.0000000   0.0000000   0.0000000   0.0000000  -8.1650000  -8.1650000
 NMagM=    0.0000000   2.7928460   2.7928460   2.7928460   0.8218740   0.8218740
 AtZNuc=   6.0000000   1.0000000   1.0000000   1.0000000  17.0000000  17.0000000
 Leave Link  101 at Fri Nov 10 14:53:18 2017, MaxMem=   134217728 cpu:               0.2 elap:               0.2
 (Enter /n/sw/g16_nehalem/g16/l123.exe)
 IRC-IRC-IRC-IRC-IRC-IRC-IRC-IRC-IRC-IRC-IRC-IRC-IRC-IRC-IRC-IRC-IRC-IRC
 ------------------------------------------------------------------------
 INPUT DATA FOR L123
 ------------------------------------------------------------------------
 GENERAL PARAMETERS:
 Rxn path following direction = Forward
 Maximum points per path      = 300
 Step size                    =   0.010 bohr
 Integration scheme           = HPC                                 
    Redo corrector integration= Yes                                 
    DWI Weight Power          =  2
    DWI will use Hessian update vectors when possible.
    Max correction cycles     =  20
 Initial Hessian              = CalcFC
 Hessian evaluation           = Analytic every  10 predictor steps
                              = Update at all corrector steps
 Hessian updating method      = Bofill                              
 ------------------------------------------------------------------------
 IRC-IRC-IRC-IRC-IRC-IRC-IRC-IRC-IRC-IRC-IRC-IRC-IRC-IRC-IRC-IRC-IRC-IRC
 Leave Link  123 at Fri Nov 10 14:53:18 2017, MaxMem=   134217728 cpu:               0.0 elap:               0.0
 (Enter /n/sw/g16_nehalem/g16/l202.exe)
                          Input orientation:                          
 ---------------------------------------------------------------------
 Center     Atomic      Atomic             Coordinates (Angstroms)
 Number     Number       Type             X           Y           Z
 ---------------------------------------------------------------------
      1          6           0        0.019942    0.000323    0.000036
      2          1           0       -0.002217    0.562044    0.942666
      3          1           0       -0.002254    0.536699   -0.957257
      4          1           0       -0.002515   -1.096828    0.014643
      5         17           0        2.140926   -0.000118   -0.000008
      6         17           0       -2.147553   -0.000108   -0.000007
 ---------------------------------------------------------------------
                    Distance matrix (angstroms):
                    1          2          3          4          5
     1  C    0.000000
     2  H    1.097530   0.000000
     3  H    1.097544   1.900092   0.000000
     4  H    1.097478   1.900811   1.900789   0.000000
     5  Cl   2.120984   2.407846   2.407845   2.407764   0.000000
     6  Cl   2.167495   2.409795   2.409730   2.409190   4.288479
                    6
     6  Cl   0.000000
 Symmetry turned off by external request.
 Stoichiometry    CH3Cl2(1-)
 Framework group  C1[X(CH3Cl2)]
 Deg. of freedom    12
 Full point group                 C1      NOp   1
 Rotational constants (GHZ):         138.8246438           1.5627933           1.5627846
 Leave Link  202 at Fri Nov 10 14:53:18 2017, MaxMem=   134217728 cpu:               0.0 elap:               0.0
 (Enter /n/sw/g16_nehalem/g16/l301.exe)
 Standard basis: VSTO-6G (5D, 7F)
 Ernie: Thresh=  0.10000D-02 Tol=  0.10000D-05 Strict=F.
  NNHCO=     0 NNPyr=     0 NCTC=     0               EPep=         0.000000000
    EC=        31.461168317  ECS=         0.475275208   EG=         0.094797496
   EHC=         0.000000000  EAt=       -33.052413022  AtH=         0.613817027
 EPDDG=         0.000000000  ECC=        32.031241022 EAtT=        33.666230050
    15 basis functions,    90 primitive gaussians,    15 cartesian basis functions
    11 alpha electrons       11 beta electrons
       nuclear repulsion energy        65.6974710715 Hartrees.
 IExCor=    0 DFT=F Ex=HF Corr=None ExCW=0 ScaHFX=  1.000000
 ScaDFX=  1.000000  1.000000  1.000000  1.000000 ScalE2=  1.000000  1.000000
 IRadAn=      5 IRanWt=     -1 IRanGd=            0 ICorTp=0 IEmpDi=  4
 Integral buffers will be    131072 words long.
 Regular integral format.
 Two-electron integral symmetry is turned off.
 Leave Link  301 at Fri Nov 10 14:53:18 2017, MaxMem=   134217728 cpu:               0.1 elap:               0.1
 (Enter /n/sw/g16_nehalem/g16/l302.exe)
 Do NDO integrals.
 NPDir=0 NMtPBC=     1 NCelOv=     1 NCel=       1 NClECP=     1 NCelD=      1
         NCelK=      1 NCelE2=     1 NClLst=     1 CellRange=     0.0.
 One-electron integrals computed using PRISM.
 NBasis=    15 RedAO= F EigKep=  0.00D+00  NBF=    15
 NBsUse=    15 1.00D-04 EigRej=  0.00D+00 NBFU=    15
 Leave Link  302 at Fri Nov 10 14:53:18 2017, MaxMem=   134217728 cpu:               0.1 elap:               0.1
 (Enter /n/sw/g16_nehalem/g16/l303.exe)
 DipDrv:  MaxL=1.
 Leave Link  303 at Fri Nov 10 14:53:18 2017, MaxMem=   134217728 cpu:               0.0 elap:               0.0
 (Enter /n/sw/g16_nehalem/g16/l401.exe)
 Simple Huckel Guess.
 JPrj=0 DoOrth=F DoCkMO=F.
 Leave Link  401 at Fri Nov 10 14:53:18 2017, MaxMem=   134217728 cpu:               0.0 elap:               0.1
 (Enter /n/sw/g16_nehalem/g16/l502.exe)
 Keep J ints in memory in canonical form, NReq=859725.
 FoFCou: FMM=F IPFlag=           0 FMFlag=           0 FMFlg1=           0
         NFxFlg=           0 DoJE=F BraDBF=F KetDBF=F FulRan=T
         wScrn=  0.000000 ICntrl=       600 IOpCl=  2 I1Cent=           0 NGrid=           0
         NMat0=    1 NMatS0=     33 NMatT0=    0 NMatD0=    1 NMtDS0=    0 NMtDT0=    0
 Symmetry not used in FoFCou.
 Two-electron integral symmetry not used.
 Closed shell SCF:
 Using DIIS extrapolation, IDIIS=  1040.
 Overlap will be assumed to be unity.
 NGot=   134217728 LenX=   134156826 LenY=   134155944
 Requested convergence on RMS density matrix=1.00D-08 within 128 cycles.
 Requested convergence on MAX density matrix=1.00D-06.
 Requested convergence on             energy=1.00D-06.
 No special actions if energy rises.

 Cycle   1  Pass 1  IDiag  1:
 E= 0.721808838940206E-01
 DIIS: error= 7.35D-02 at cycle   1 NSaved=   1.
 NSaved= 1 IEnMin= 1 EnMin= 0.721808838940206E-01 IErMin= 1 ErrMin= 7.35D-02
 ErrMax= 7.35D-02  0.00D+00 EMaxC= 1.00D-01 BMatC= 7.59D-02 BMatP= 7.59D-02
 IDIUse=3 WtCom= 2.65D-01 WtEn= 7.35D-01
 Coeff-Com:  0.100D+01
 Coeff-En:   0.100D+01
 Coeff:      0.100D+01
 GapD=    2.000 DampG=2.000 DampE=0.500 DampFc=1.0000 IDamp=-1.
 RMSDP=2.18D-02 MaxDP=1.29D-01              OVMax= 0.00D+00

 Cycle   2  Pass 1  IDiag  1:
 E=-0.824303864823861E-01 Delta-E=       -0.154611270376 Rises=F Damp=F
 DIIS: error= 1.28D-02 at cycle   2 NSaved=   2.
 NSaved= 2 IEnMin= 2 EnMin=-0.824303864823861E-01 IErMin= 2 ErrMin= 1.28D-02
 ErrMax= 1.28D-02  0.00D+00 EMaxC= 1.00D-01 BMatC= 3.12D-03 BMatP= 7.59D-02
 IDIUse=3 WtCom= 8.72D-01 WtEn= 1.28D-01
 Coeff-Com: -0.244D+00 0.124D+01
 Coeff-En:   0.000D+00 0.100D+01
 Coeff:     -0.213D+00 0.121D+01
 RMSDP=5.55D-03 MaxDP=3.92D-02 DE=-1.55D-01 OVMax= 0.00D+00

 Cycle   3  Pass 1  IDiag  3:
 E=-0.893143196240231E-01 Delta-E=       -0.006883933142 Rises=F Damp=F
 DIIS: error= 1.18D-03 at cycle   3 NSaved=   3.
 NSaved= 3 IEnMin= 3 EnMin=-0.893143196240231E-01 IErMin= 3 ErrMin= 1.18D-03
 ErrMax= 1.18D-03  0.00D+00 EMaxC= 1.00D-01 BMatC= 3.41D-05 BMatP= 3.12D-03
 IDIUse=3 WtCom= 9.88D-01 WtEn= 1.18D-02
 Coeff-Com:  0.896D-01-0.509D+00 0.142D+01
 Coeff-En:   0.000D+00 0.000D+00 0.100D+01
 Coeff:      0.885D-01-0.503D+00 0.141D+01
 Gap=     0.371 Goal=   None    Shift=    0.000
 RMSDP=1.34D-03 MaxDP=6.29D-03 DE=-6.88D-03 OVMax= 1.15D-02

 Cycle   4  Pass 1  IDiag  3:
 E=-0.895029894112866E-01 Delta-E=       -0.000188669787 Rises=F Damp=F
 DIIS: error= 2.10D-04 at cycle   4 NSaved=   4.
 NSaved= 4 IEnMin= 4 EnMin=-0.895029894112866E-01 IErMin= 4 ErrMin= 2.10D-04
 ErrMax= 2.10D-04  0.00D+00 EMaxC= 1.00D-01 BMatC= 1.60D-06 BMatP= 3.41D-05
 IDIUse=3 WtCom= 9.98D-01 WtEn= 2.10D-03
 Coeff-Com: -0.187D-01 0.105D+00-0.442D+00 0.136D+01
 Coeff-En:   0.000D+00 0.000D+00 0.000D+00 0.100D+01
 Coeff:     -0.187D-01 0.104D+00-0.441D+00 0.136D+01
 Gap=     0.372 Goal=   None    Shift=    0.000
 RMSDP=3.78D-04 MaxDP=1.50D-03 DE=-1.89D-04 OVMax= 3.68D-03

 Cycle   5  Pass 1  IDiag  3:
 E=-0.895147285882558E-01 Delta-E=       -0.000011739177 Rises=F Damp=F
 DIIS: error= 4.80D-05 at cycle   5 NSaved=   5.
 NSaved= 5 IEnMin= 5 EnMin=-0.895147285882558E-01 IErMin= 5 ErrMin= 4.80D-05
 ErrMax= 4.80D-05  0.00D+00 EMaxC= 1.00D-01 BMatC= 7.41D-08 BMatP= 1.60D-06
 IDIUse=1 WtCom= 1.00D+00 WtEn= 0.00D+00
 Coeff-Com:  0.450D-02-0.236D-01 0.119D+00-0.590D+00 0.149D+01
 Coeff:      0.450D-02-0.236D-01 0.119D+00-0.590D+00 0.149D+01
 Gap=     0.372 Goal=   None    Shift=    0.000
 RMSDP=9.33D-05 MaxDP=3.75D-04 DE=-1.17D-05 OVMax= 8.79D-04

 Cycle   6  Pass 1  IDiag  3:
 E=-0.895152492362712E-01 Delta-E=       -0.000000520648 Rises=F Damp=F
 DIIS: error= 8.35D-06 at cycle   6 NSaved=   6.
 NSaved= 6 IEnMin= 6 EnMin=-0.895152492362712E-01 IErMin= 6 ErrMin= 8.35D-06
 ErrMax= 8.35D-06  0.00D+00 EMaxC= 1.00D-01 BMatC= 1.53D-09 BMatP= 7.41D-08
 IDIUse=1 WtCom= 1.00D+00 WtEn= 0.00D+00
 Coeff-Com: -0.509D-03 0.193D-02-0.218D-01 0.196D+00-0.626D+00 0.145D+01
 Coeff:     -0.509D-03 0.193D-02-0.218D-01 0.196D+00-0.626D+00 0.145D+01
 Gap=     0.372 Goal=   None    Shift=    0.000
 RMSDP=1.01D-05 MaxDP=4.88D-05 DE=-5.21D-07 OVMax= 4.58D-05

 Cycle   7  Pass 1  IDiag  3:
 E=-0.895152579447114E-01 Delta-E=       -0.000000008708 Rises=F Damp=F
 DIIS: error= 1.61D-06 at cycle   7 NSaved=   7.
 NSaved= 7 IEnMin= 7 EnMin=-0.895152579447114E-01 IErMin= 7 ErrMin= 1.61D-06
 ErrMax= 1.61D-06  0.00D+00 EMaxC= 1.00D-01 BMatC= 5.26D-11 BMatP= 1.53D-09
 IDIUse=1 WtCom= 1.00D+00 WtEn= 0.00D+00
 Coeff-Com: -0.179D-03 0.126D-02-0.807D-03-0.363D-01 0.148D+00-0.532D+00
 Coeff-Com:  0.142D+01
 Coeff:     -0.179D-03 0.126D-02-0.807D-03-0.363D-01 0.148D+00-0.532D+00
 Coeff:      0.142D+01
 Gap=     0.372 Goal=   None    Shift=    0.000
 RMSDP=1.87D-06 MaxDP=9.12D-06 DE=-8.71D-09 OVMax= 9.76D-06

 Cycle   8  Pass 1  IDiag  3:
 E=-0.895152582415051E-01 Delta-E=       -0.000000000297 Rises=F Damp=F
 DIIS: error= 3.58D-07 at cycle   8 NSaved=   8.
 NSaved= 8 IEnMin= 8 EnMin=-0.895152582415051E-01 IErMin= 8 ErrMin= 3.58D-07
 ErrMax= 3.58D-07  0.00D+00 EMaxC= 1.00D-01 BMatC= 1.64D-12 BMatP= 5.26D-11
 IDIUse=1 WtCom= 1.00D+00 WtEn= 0.00D+00
 Coeff-Com:  0.377D-04-0.350D-03-0.729D-03 0.222D-01-0.825D-01 0.288D+00
 Coeff-Com: -0.799D+00 0.157D+01
 Coeff:      0.377D-04-0.350D-03-0.729D-03 0.222D-01-0.825D-01 0.288D+00
 Coeff:     -0.799D+00 0.157D+01
 Gap=     0.372 Goal=   None    Shift=    0.000
 RMSDP=3.61D-07 MaxDP=2.82D-06 DE=-2.97D-10 OVMax= 3.13D-06

 Cycle   9  Pass 1  IDiag  3:
 E=-0.895152582503442E-01 Delta-E=       -0.000000000009 Rises=F Damp=F
 DIIS: error= 5.60D-08 at cycle   9 NSaved=   9.
 NSaved= 9 IEnMin= 9 EnMin=-0.895152582503442E-01 IErMin= 9 ErrMin= 5.60D-08
 ErrMax= 5.60D-08  0.00D+00 EMaxC= 1.00D-01 BMatC= 3.57D-14 BMatP= 1.64D-12
 IDIUse=1 WtCom= 1.00D+00 WtEn= 0.00D+00
 Coeff-Com:  0.418D-05 0.477D-05 0.392D-03-0.513D-02 0.176D-01-0.574D-01
 Coeff-Com:  0.154D+00-0.312D+00 0.120D+01
 Coeff:      0.418D-05 0.477D-05 0.392D-03-0.513D-02 0.176D-01-0.574D-01
 Coeff:      0.154D+00-0.312D+00 0.120D+01
 Gap=     0.372 Goal=   None    Shift=    0.000
 RMSDP=4.06D-08 MaxDP=3.21D-07 DE=-8.84D-12 OVMax= 3.57D-07

 Cycle  10  Pass 1  IDiag  3:
 E=-0.895152582505148E-01 Delta-E=        0.000000000000 Rises=F Damp=F
 DIIS: error= 1.11D-08 at cycle  10 NSaved=  10.
 NSaved=10 IEnMin=10 EnMin=-0.895152582505148E-01 IErMin=10 ErrMin= 1.11D-08
 ErrMax= 1.11D-08  0.00D+00 EMaxC= 1.00D-01 BMatC= 1.86D-15 BMatP= 3.57D-14
 IDIUse=1 WtCom= 1.00D+00 WtEn= 0.00D+00
 Coeff-Com: -0.100D-05 0.338D-05-0.448D-04 0.449D-03-0.148D-02 0.481D-02
 Coeff-Com: -0.130D-01 0.264D-01-0.442D+00 0.142D+01
 Coeff:     -0.100D-05 0.338D-05-0.448D-04 0.449D-03-0.148D-02 0.481D-02
 Coeff:     -0.130D-01 0.264D-01-0.442D+00 0.142D+01
 Gap=     0.372 Goal=   None    Shift=    0.000
 RMSDP=1.35D-08 MaxDP=8.55D-08 DE=-1.71D-13 OVMax= 9.47D-08

 Cycle  11  Pass 1  IDiag  3:
 E=-0.895152582506284E-01 Delta-E=        0.000000000000 Rises=F Damp=F
 DIIS: error= 1.98D-09 at cycle  11 NSaved=  11.
 NSaved=11 IEnMin=11 EnMin=-0.895152582506284E-01 IErMin=11 ErrMin= 1.98D-09
 ErrMax= 1.98D-09  0.00D+00 EMaxC= 1.00D-01 BMatC= 9.17D-17 BMatP= 1.86D-15
 IDIUse=1 WtCom= 1.00D+00 WtEn= 0.00D+00
 Coeff-Com: -0.186D-06 0.178D-05 0.402D-05-0.123D-03 0.462D-03-0.175D-02
 Coeff-Com:  0.510D-02-0.105D-01 0.213D+00-0.801D+00 0.159D+01
 Coeff:     -0.186D-06 0.178D-05 0.402D-05-0.123D-03 0.462D-03-0.175D-02
 Coeff:      0.510D-02-0.105D-01 0.213D+00-0.801D+00 0.159D+01
 Gap=     0.372 Goal=   None    Shift=    0.000
 RMSDP=3.06D-09 MaxDP=1.15D-08 DE=-1.14D-13 OVMax= 1.89D-08

 Cycle  12  Pass 2  IDiag  1:
 SCF Done:  E(RAM1) = -0.895152582506E-01 A.U. after   12 cycles
            NFock= 11  Conv=0.31D-08     -V/T= 0.9984
 KE=-5.738975430731D+01 PE=-6.408110545582D+01 EE= 5.568387343337D+01
 Leave Link  502 at Fri Nov 10 14:53:18 2017, MaxMem=   134217728 cpu:               0.0 elap:               0.0
 (Enter /n/sw/g16_nehalem/g16/l801.exe)
 Range of M.O.s used for correlation:     1    15
 NBasis=    15 NAE=    11 NBE=    11 NFC=     0 NFV=     0
 NROrb=     15 NOA=    11 NOB=    11 NVA=     4 NVB=     4
 Leave Link  801 at Fri Nov 10 14:53:18 2017, MaxMem=   134217728 cpu:               0.0 elap:               0.0
 (Enter /n/sw/g16_nehalem/g16/l1101.exe)
 Using compressed storage, NAtomX=     6.
 Will process      7 centers per pass.
 Leave Link 1101 at Fri Nov 10 14:53:18 2017, MaxMem=   134217728 cpu:               0.1 elap:               0.1
 (Enter /n/sw/g16_nehalem/g16/l1102.exe)
 Symmetrizing basis deriv contribution to polar:
 IMax=3 JMax=2 DiffMx= 0.00D+00
 Leave Link 1102 at Fri Nov 10 14:53:18 2017, MaxMem=   134217728 cpu:               0.0 elap:               0.0
 (Enter /n/sw/g16_nehalem/g16/l1110.exe)
 Forming Gx(P) for the SCF density, NAtomX=     6.
 Integral derivatives from FoFJK, PRISM(SPDF).
 Do as many integral derivatives as possible in FoFJK.
 G2DrvN: MDV=     134158284.
 G2DrvN: will do     7 centers at a time, making    1 passes.
 Calling FoFCou, ICntrl=  3107 FMM=F I1Cent=   0 AccDes= 0.00D+00.
 FoFJK:  IHMeth= 8 ICntrl=    3107 DoSepK=F KAlg= 0 I1Cent=           0 FoldK=F
 IRaf=         0 NMat=       1 IRICut=       1 DoRegI=T DoRafI=F ISym2E= 0 IDoP0=3 IntGTp=3.
 FoFCou: FMM=F IPFlag=           0 FMFlag=      100000 FMFlg1=           0
         NFxFlg=           0 DoJE=F BraDBF=F KetDBF=F FulRan=T
         wScrn=  0.000000 ICntrl=      3107 IOpCl=  0 I1Cent=           0 NGrid=           0
         NMat0=    1 NMatS0=      1 NMatT0=    0 NMatD0=    1 NMtDS0=    0 NMtDT0=    0
 Symmetry not used in FoFCou.
 End of G2Drv F.D. properties file   721 does not exist.
 End of G2Drv F.D. properties file   722 does not exist.
 End of G2Drv F.D. properties file   788 does not exist.
 Leave Link 1110 at Fri Nov 10 14:53:18 2017, MaxMem=   134217728 cpu:               0.0 elap:               0.0
 (Enter /n/sw/g16_nehalem/g16/l1002.exe)
 Minotr:  Closed shell wavefunction.
          IDoAtm=111111
          Direct CPHF calculation.
          Differentiating once with respect to nuclear coordinates.
          Electric field/nuclear overlap derivatives assumed to be zero.
          Requested convergence is 1.0D-08 RMS, and 1.0D-07 maximum.
          NewPWx=T KeepS1=F KeepF1=F KeepIn=T MapXYZ=F SortEE=F KeepMc=T.
 Keep J ints in memory in canonical form, NReq=860436.
 FoFCou: FMM=F IPFlag=           0 FMFlag=           0 FMFlg1=           0
         NFxFlg=           0 DoJE=F BraDBF=F KetDBF=F FulRan=T
         wScrn=  0.000000 ICntrl=       600 IOpCl=  2 I1Cent=           0 NGrid=           0
         NMat0=    1 NMatS0=     33 NMatT0=    0 NMatD0=    1 NMtDS0=    0 NMtDT0=    0
 Symmetry not used in FoFCou.
 Two-electron integral symmetry not used.
          MDV=     134217728 using IRadAn=       1.
          Solving linear equations separately, MaxMat=       0.
          There are    21 degrees of freedom in the 1st order CPHF.  IDoFFX=5 NUNeed=    21.
 LinEq1:  Iter=  0 NonCon=    18 RMS=5.70D-02 Max=3.09D-01 NDo=    18
 AX will form    21 AO Fock derivatives at one time.
 LinEq1:  Iter=  1 NonCon=    18 RMS=5.26D-03 Max=2.59D-02 NDo=    21
 LinEq1:  Iter=  2 NonCon=    18 RMS=2.43D-04 Max=7.90D-04 NDo=    21
 LinEq1:  Iter=  3 NonCon=    18 RMS=1.76D-05 Max=6.74D-05 NDo=    21
 LinEq1:  Iter=  4 NonCon=    18 RMS=2.06D-06 Max=9.39D-06 NDo=    21
 LinEq1:  Iter=  5 NonCon=    18 RMS=1.97D-07 Max=5.33D-07 NDo=    21
 LinEq1:  Iter=  6 NonCon=     5 RMS=1.19D-08 Max=4.58D-08 NDo=    21
 LinEq1:  Iter=  7 NonCon=     0 RMS=7.10D-10 Max=3.13D-09 NDo=    21
 Linear equations converged to 1.000D-08 1.000D-07 after     7 iterations.
 End of Minotr F.D. properties file   721 does not exist.
 End of Minotr F.D. properties file   722 does not exist.
 End of Minotr F.D. properties file   788 does not exist.
 Leave Link 1002 at Fri Nov 10 14:53:18 2017, MaxMem=   134217728 cpu:               0.0 elap:               0.1
 (Enter /n/sw/g16_nehalem/g16/l601.exe)
 Copying SCF densities to generalized density rwf, IOpCl= 0 IROHF=0.

 **********************************************************************

            Population analysis using the SCF density.

 **********************************************************************

 Alpha  occ. eigenvalues --   -1.07036  -1.05037  -0.87347  -0.37569  -0.37556
 Alpha  occ. eigenvalues --   -0.30878  -0.21751  -0.21751  -0.20076  -0.20076
 Alpha  occ. eigenvalues --   -0.16079
 Alpha virt. eigenvalues --    0.21079   0.31135   0.32779   0.32788
          Condensed to atoms (all electrons):
               1          2          3          4          5          6
     1  C    3.897464   0.000000   0.000000   0.000000   0.000000   0.000000
     2  H    0.000000   0.895092   0.000000   0.000000   0.000000   0.000000
     3  H    0.000000   0.000000   0.895092   0.000000   0.000000   0.000000
     4  H    0.000000   0.000000   0.000000   0.894935   0.000000   0.000000
     5  Cl   0.000000   0.000000   0.000000   0.000000   7.685339   0.000000
     6  Cl   0.000000   0.000000   0.000000   0.000000   0.000000   7.732078
 Mulliken charges:
               1
     1  C    0.102536
     2  H    0.104908
     3  H    0.104908
     4  H    0.105065
     5  Cl  -0.685339
     6  Cl  -0.732078
 Sum of Mulliken charges =  -1.00000
 Mulliken charges with hydrogens summed into heavy atoms:
               1
     1  C    0.417417
     5  Cl  -0.685339
     6  Cl  -0.732078
 APT charges:
               1
     1  C    0.102536
     2  H    0.104908
     3  H    0.104908
     4  H    0.105065
     5  Cl  -0.685339
     6  Cl  -0.732078
 Sum of APT charges =  -1.00000
 APT charges with hydrogens summed into heavy atoms:
               1
     1  C    0.417417
     5  Cl  -0.685339
     6  Cl  -0.732078
 Charge=             -1.0000 electrons
 Dipole moment (field-independent basis, Debye):
    X=              0.5086    Y=              0.0014    Z=              0.0001  Tot=              0.5086
 N-N= 6.569747107152D+01 E-N=-6.408110544087D+01  KE=-5.738975430731D+01
  Exact polarizability:   0.000   0.000   0.000   0.000   0.000   0.000
 Approx polarizability:  50.629   0.000   4.694   0.000   0.000   4.690
 Leave Link  601 at Fri Nov 10 14:53:18 2017, MaxMem=   134217728 cpu:               0.0 elap:               0.0
 (Enter /n/sw/g16_nehalem/g16/l701.exe)
 ... and contract with generalized density number  0.
 Compute integral second derivatives.
 Leave Link  701 at Fri Nov 10 14:53:19 2017, MaxMem=   134217728 cpu:               0.1 elap:               0.1
 (Enter /n/sw/g16_nehalem/g16/l702.exe)
 L702 exits ... SP integral derivatives will be done elsewhere.
 Leave Link  702 at Fri Nov 10 14:53:19 2017, MaxMem=   134217728 cpu:               0.0 elap:               0.0
 (Enter /n/sw/g16_nehalem/g16/l703.exe)
 Integral derivatives from FoFJK, PRISM(SPDF).
 Compute integral second derivatives, UseDBF=F ICtDFT=           0.
 Calling FoFJK, ICntrl=    100147 FMM=F ISym2X=0 I1Cent= 0 IOpClX= 0 NMat=1 NMatS=1 NMatT=0.
 FoFJK:  IHMeth= 8 ICntrl=  100147 DoSepK=F KAlg= 0 I1Cent=           0 FoldK=F
 IRaf=         0 NMat=       1 IRICut=       1 DoRegI=T DoRafI=F ISym2E= 0 IDoP0=3 IntGTp=3.
 FoFCou: FMM=F IPFlag=           0 FMFlag=      100000 FMFlg1=         800
         NFxFlg=           0 DoJE=F BraDBF=F KetDBF=F FulRan=T
         wScrn=  0.000000 ICntrl=    100147 IOpCl=  0 I1Cent=           0 NGrid=           0
         NMat0=    1 NMatS0=      1 NMatT0=    0 NMatD0=    1 NMtDS0=    0 NMtDT0=    0
 Symmetry not used in FoFCou.
 Leave Link  703 at Fri Nov 10 14:53:19 2017, MaxMem=   134217728 cpu:               0.0 elap:               0.0
 (Enter /n/sw/g16_nehalem/g16/l716.exe)
 Dipole        = 2.00095403D-01 5.59357575D-04 4.03301367D-05
 Polarizability= 0.00000000D+00 0.00000000D+00 0.00000000D+00
                 0.00000000D+00 0.00000000D+00 0.00000000D+00
 -------------------------------------------------------------------
 Center     Atomic                   Forces (Hartrees/Bohr)
 Number     Number              X              Y              Z
 -------------------------------------------------------------------
      1        6           0.003656567    0.000089173   -0.000012871
      2        1          -0.000032119   -0.000028396    0.000059450
      3        1          -0.000029480   -0.000030998   -0.000051666
      4        1          -0.000014123   -0.000042268    0.000003091
      5       17           0.000044302    0.000001863    0.000000573
      6       17          -0.003625146    0.000010627    0.000001422
 -------------------------------------------------------------------
 Cartesian Forces:  Max     0.003656567 RMS     0.001214135
 Z-matrix is all fixed cartesians, so copy forces.
 Force constants in Cartesian coordinates: 
                1             2             3             4             5 
      1 -0.819369D-01
      2  0.728320D-04  0.570836D+00
      3  0.690202D-05  0.110673D-04  0.570321D+00
      4 -0.164543D-02  0.288476D-02  0.484402D-02  0.415873D-01
      5  0.303047D-02 -0.116182D+00 -0.122688D+00 -0.314017D-02  0.123236D+00
      6  0.509524D-02 -0.122688D+00 -0.248973D+00 -0.527467D-02  0.139901D+00
      7 -0.164563D-02  0.275845D-02 -0.492635D-02  0.307721D-02 -0.197341D-03
      8  0.289789D-02 -0.109729D+00  0.118962D+00 -0.206666D-03  0.800421D-02
      9 -0.518325D-02  0.118962D+00 -0.255407D+00 -0.343478D-03  0.858409D-02
     10 -0.157127D-02 -0.570991D-02  0.760136D-04  0.306224D-02  0.398423D-03
     11 -0.601581D-02 -0.322115D+00  0.371520D-02 -0.206225D-03 -0.167564D-01
     12  0.795991D-04  0.371556D-02 -0.431242D-01 -0.348607D-03 -0.228774D-01
     13  0.428228D-01  0.336309D-05  0.000000D+00 -0.236402D-01  0.281182D-02
     14 -0.106477D-04 -0.126511D-01  0.000000D+00  0.536929D-02  0.914768D-03
     15 -0.147177D-05  0.000000D+00 -0.126526D-01  0.900903D-02 -0.147269D-02
     16  0.439764D-01 -0.948872D-05  0.000000D+00 -0.224411D-01 -0.290318D-02
     17  0.252456D-04 -0.101586D-01  0.000000D+00 -0.470099D-02  0.783359D-03
     18  0.297775D-05  0.000000D+00 -0.101636D-01 -0.788629D-02 -0.144642D-02
                6             7             8             9            10 
      6  0.274732D+00
      7  0.348035D-03  0.415906D-01
      8 -0.945298D-02 -0.300248D-02  0.115880D+00
      9 -0.245596D-01  0.536455D-02 -0.135651D+00  0.282071D+00
     10 -0.897471D-05  0.306242D-02  0.399008D-03 -0.186271D-05  0.415848D-01
     11 -0.484084D-02 -0.196619D-03 -0.160070D-01  0.527533D-02  0.621751D-02
     12  0.257234D-03  0.353796D-03  0.233116D-01 -0.493980D-03 -0.825164D-04
     13  0.470823D-02 -0.236410D-01  0.268528D-02 -0.478069D-02 -0.236624D-01
     14 -0.147156D-02  0.512719D-02  0.992128D-03  0.142685D-02 -0.104782D-01
     15 -0.675771D-03 -0.914789D-02  0.142806D-02 -0.752614D-03  0.140255D-03
     16 -0.486783D-02 -0.224435D-01 -0.277302D-02  0.494470D-02 -0.224757D-01
     17 -0.144699D-02 -0.448920D-02  0.859529D-03  0.140350D-02  0.917318D-02
     18 -0.781262D-03  0.800786D-02  0.140277D-02 -0.857290D-03 -0.122915D-03
               11            12            13            14            15 
     11  0.358073D+00
     12 -0.423835D-02  0.399201D-01
     13 -0.547806D-02  0.734429D-04  0.634764D-01
     14 -0.154983D-02  0.447217D-04 -0.139490D-04  0.102352D-01
     15  0.446457D-04  0.179277D-02  0.000000D+00  0.000000D+00  0.102300D-01
     16  0.567917D-02 -0.757143D-04 -0.353555D-01  0.632333D-05  0.000000D+00
     17 -0.164541D-02  0.438615D-04 -0.842648D-05  0.205878D-02  0.000000D+00
     18  0.440173D-04  0.164810D-02  0.000000D+00  0.000000D+00  0.205815D-02
               16            17            18 
     16  0.587395D-01
     17  0.000000D+00  0.810234D-02
     18  0.000000D+00  0.000000D+00  0.809592D-02
 Leave Link  716 at Fri Nov 10 14:53:19 2017, MaxMem=   134217728 cpu:               0.0 elap:               0.0
 (Enter /n/sw/g16_nehalem/g16/l123.exe)
 IRC-IRC-IRC-IRC-IRC-IRC-IRC-IRC-IRC-IRC-IRC-IRC-IRC-IRC-IRC-IRC-IRC-IRC
          ******** Start new reaction path calculation ********
 Current Structure is TS -> form Hessian eigenvectors.
                            Diagonalizing Hessian.
 Supplied step size of   0.0100 bohr.
    Integration on MW PES will use step size of   0.0358 sqrt(amu)*bohr.
 Point Number:   0          Path Number:   1
 Calculating another point on the path.
 Point Number  1 in FORWARD path direction.
 Using LQA Reaction Path Following.
 IRC-IRC-IRC-IRC-IRC-IRC-IRC-IRC-IRC-IRC-IRC-IRC-IRC-IRC-IRC-IRC-IRC-IRC
 Leave Link  123 at Fri Nov 10 14:53:19 2017, MaxMem=   134217728 cpu:               0.0 elap:               0.0
 (Enter /n/sw/g16_nehalem/g16/l202.exe)
                          Input orientation:                          
 ---------------------------------------------------------------------
 Center     Atomic      Atomic             Coordinates (Angstroms)
 Number     Number       Type             X           Y           Z
 ---------------------------------------------------------------------
      1          6           0        0.014875    0.000347    0.000036
      2          1           0       -0.001667    0.562111    0.942740
      3          1           0       -0.001704    0.536764   -0.957332
      4          1           0       -0.001956   -1.096891    0.014645
      5         17           0        2.141750   -0.000093   -0.000008
      6         17           0       -2.146701   -0.000083   -0.000006
 ---------------------------------------------------------------------
                    Distance matrix (angstroms):
                    1          2          3          4          5
     1  C    0.000000
     2  H    1.097517   0.000000
     3  H    1.097530   1.900241   0.000000
     4  H    1.097464   1.900961   1.900939   0.000000
     5  Cl   2.126875   2.408129   2.408128   2.408039   0.000000
     6  Cl   2.161575   2.409565   2.409499   2.408969   4.288451
                    6
     6  Cl   0.000000
 Symmetry turned off by external request.
 Stoichiometry    CH3Cl2(1-)
 Framework group  C1[X(CH3Cl2)]
 Deg. of freedom    12
 Full point group                 C1      NOp   1
 Rotational constants (GHZ):         138.8028469           1.5628245           1.5628157
 Leave Link  202 at Fri Nov 10 14:53:19 2017, MaxMem=   134217728 cpu:               0.0 elap:               0.0
 (Enter /n/sw/g16_nehalem/g16/l301.exe)
 Standard basis: VSTO-6G (5D, 7F)
 Ernie: Thresh=  0.10000D-02 Tol=  0.10000D-05 Strict=F.
  NNHCO=     0 NNPyr=     0 NCTC=     0               EPep=         0.000000000
    EC=        31.460810822  ECS=         0.475212559   EG=         0.094760854
   EHC=         0.000000000  EAt=       -33.052413022  AtH=         0.613817027
 EPDDG=         0.000000000  ECC=        32.030784235 EAtT=        33.666230050
    15 basis functions,    90 primitive gaussians,    15 cartesian basis functions
    11 alpha electrons       11 beta electrons
       nuclear repulsion energy        65.6970142848 Hartrees.
 IExCor=    0 DFT=F Ex=HF Corr=None ExCW=0 ScaHFX=  1.000000
 ScaDFX=  1.000000  1.000000  1.000000  1.000000 ScalE2=  1.000000  1.000000
 IRadAn=      5 IRanWt=     -1 IRanGd=            0 ICorTp=0 IEmpDi=  4
 Integral buffers will be    131072 words long.
 Regular integral format.
 Two-electron integral symmetry is turned off.
 Leave Link  301 at Fri Nov 10 14:53:19 2017, MaxMem=   134217728 cpu:               0.1 elap:               0.1
 (Enter /n/sw/g16_nehalem/g16/l302.exe)
 Do NDO integrals.
 NPDir=0 NMtPBC=     1 NCelOv=     1 NCel=       1 NClECP=     1 NCelD=      1
         NCelK=      1 NCelE2=     1 NClLst=     1 CellRange=     0.0.
 One-electron integrals computed using PRISM.
 NBasis=    15 RedAO= F EigKep=  0.00D+00  NBF=    15
 NBsUse=    15 1.00D-04 EigRej=  0.00D+00 NBFU=    15
 Leave Link  302 at Fri Nov 10 14:53:19 2017, MaxMem=   134217728 cpu:               0.1 elap:               0.1
 (Enter /n/sw/g16_nehalem/g16/l303.exe)
 DipDrv:  MaxL=1.
 Leave Link  303 at Fri Nov 10 14:53:19 2017, MaxMem=   134217728 cpu:               0.0 elap:               0.0
 (Enter /n/sw/g16_nehalem/g16/l401.exe)
 Initial guess from the checkpoint file:  "/scratch/dhuang9_MeCl_ts_IRC_forward/Gau-14857.chk"
 B after Tr=    -0.000011    0.000047    0.000001
         Rot=    1.000000    0.000000    0.000000    0.000000 Ang=   0.00 deg.
 Guess basis will be translated and rotated to current coordinates.
 JPrj=0 DoOrth=T DoCkMO=T.
 Leave Link  401 at Fri Nov 10 14:53:19 2017, MaxMem=   134217728 cpu:               0.1 elap:               0.1
 (Enter /n/sw/g16_nehalem/g16/l502.exe)
 Keep J ints in memory in canonical form, NReq=859725.
 FoFCou: FMM=F IPFlag=           0 FMFlag=           0 FMFlg1=           0
         NFxFlg=           0 DoJE=F BraDBF=F KetDBF=F FulRan=T
         wScrn=  0.000000 ICntrl=       600 IOpCl=  2 I1Cent=           0 NGrid=           0
         NMat0=    1 NMatS0=     33 NMatT0=    0 NMatD0=    1 NMtDS0=    0 NMtDT0=    0
 Symmetry not used in FoFCou.
 Two-electron integral symmetry not used.
 Closed shell SCF:
 Using DIIS extrapolation, IDIIS=  1040.
 Overlap will be assumed to be unity.
 NGot=   134217728 LenX=   134156826 LenY=   134155944
 Requested convergence on RMS density matrix=1.00D-08 within 128 cycles.
 Requested convergence on MAX density matrix=1.00D-06.
 Requested convergence on             energy=1.00D-06.
 No special actions if energy rises.

 Cycle   1  Pass 1  IDiag  1:
 E=-0.894516272513499E-01
 DIIS: error= 6.54D-04 at cycle   1 NSaved=   1.
 NSaved= 1 IEnMin= 1 EnMin=-0.894516272513499E-01 IErMin= 1 ErrMin= 6.54D-04
 ErrMax= 6.54D-04  0.00D+00 EMaxC= 1.00D-01 BMatC= 5.03D-06 BMatP= 5.03D-06
 IDIUse=3 WtCom= 9.93D-01 WtEn= 6.54D-03
 Coeff-Com:  0.100D+01
 Coeff-En:   0.100D+01
 Coeff:      0.100D+01
 RMSDP=3.91D-04 MaxDP=1.85D-03              OVMax= 0.00D+00

 Cycle   2  Pass 1  IDiag  3:
 E=-0.894749582072194E-01 Delta-E=       -0.000023330956 Rises=F Damp=F
 DIIS: error= 1.96D-04 at cycle   2 NSaved=   2.
 NSaved= 2 IEnMin= 2 EnMin=-0.894749582072194E-01 IErMin= 2 ErrMin= 1.96D-04
 ErrMax= 1.96D-04  0.00D+00 EMaxC= 1.00D-01 BMatC= 7.01D-07 BMatP= 5.03D-06
 IDIUse=3 WtCom= 9.98D-01 WtEn= 1.96D-03
 Coeff-Com: -0.464D+00 0.146D+01
 Coeff-En:   0.000D+00 0.100D+01
 Coeff:     -0.463D+00 0.146D+01
 Gap=     0.372 Goal=   None    Shift=    0.000
 RMSDP=2.25D-04 MaxDP=1.02D-03 DE=-2.33D-05 OVMax= 1.82D-03

 Cycle   3  Pass 1  IDiag  3:
 E=-0.894793892459518E-01 Delta-E=       -0.000004431039 Rises=F Damp=F
 DIIS: error= 3.02D-05 at cycle   3 NSaved=   3.
 NSaved= 3 IEnMin= 3 EnMin=-0.894793892459518E-01 IErMin= 3 ErrMin= 3.02D-05
 ErrMax= 3.02D-05  0.00D+00 EMaxC= 1.00D-01 BMatC= 2.68D-08 BMatP= 7.01D-07
 IDIUse=1 WtCom= 1.00D+00 WtEn= 0.00D+00
 Coeff-Com:  0.167D+00-0.653D+00 0.149D+01
 Coeff:      0.167D+00-0.653D+00 0.149D+01
 Gap=     0.372 Goal=   None    Shift=    0.000
 RMSDP=4.85D-05 MaxDP=1.87D-04 DE=-4.43D-06 OVMax= 3.99D-04

 Cycle   4  Pass 1  IDiag  3:
 E=-0.894795497225971E-01 Delta-E=       -0.000000160477 Rises=F Damp=F
 DIIS: error= 9.44D-07 at cycle   4 NSaved=   4.
 NSaved= 4 IEnMin= 4 EnMin=-0.894795497225971E-01 IErMin= 4 ErrMin= 9.44D-07
 ErrMax= 9.44D-07  0.00D+00 EMaxC= 1.00D-01 BMatC= 3.99D-11 BMatP= 2.68D-08
 IDIUse=1 WtCom= 1.00D+00 WtEn= 0.00D+00
 Coeff-Com: -0.642D-01 0.250D+00-0.571D+00 0.139D+01
 Coeff:     -0.642D-01 0.250D+00-0.571D+00 0.139D+01
 Gap=     0.372 Goal=   None    Shift=    0.000
 RMSDP=1.26D-06 MaxDP=4.04D-06 DE=-1.60D-07 OVMax= 5.91D-06

 Cycle   5  Pass 1  IDiag  3:
 E=-0.894795499208954E-01 Delta-E=       -0.000000000198 Rises=F Damp=F
 DIIS: error= 3.07D-07 at cycle   5 NSaved=   5.
 NSaved= 5 IEnMin= 5 EnMin=-0.894795499208954E-01 IErMin= 5 ErrMin= 3.07D-07
 ErrMax= 3.07D-07  0.00D+00 EMaxC= 1.00D-01 BMatC= 2.57D-12 BMatP= 3.99D-11
 IDIUse=1 WtCom= 1.00D+00 WtEn= 0.00D+00
 Coeff-Com:  0.268D-01-0.105D+00 0.239D+00-0.693D+00 0.153D+01
 Coeff:      0.268D-01-0.105D+00 0.239D+00-0.693D+00 0.153D+01
 Gap=     0.372 Goal=   None    Shift=    0.000
 RMSDP=4.43D-07 MaxDP=1.74D-06 DE=-1.98D-10 OVMax= 2.73D-06

 Cycle   6  Pass 1  IDiag  3:
 E=-0.894795499362999E-01 Delta-E=       -0.000000000015 Rises=F Damp=F
 DIIS: error= 3.02D-08 at cycle   6 NSaved=   6.
 NSaved= 6 IEnMin= 6 EnMin=-0.894795499362999E-01 IErMin= 6 ErrMin= 3.02D-08
 ErrMax= 3.02D-08  0.00D+00 EMaxC= 1.00D-01 BMatC= 2.57D-14 BMatP= 2.57D-12
 IDIUse=1 WtCom= 1.00D+00 WtEn= 0.00D+00
 Coeff-Com: -0.109D-01 0.425D-01-0.972D-01 0.291D+00-0.679D+00 0.145D+01
 Coeff:     -0.109D-01 0.425D-01-0.972D-01 0.291D+00-0.679D+00 0.145D+01
 Gap=     0.372 Goal=   None    Shift=    0.000
 RMSDP=3.85D-08 MaxDP=1.52D-07 DE=-1.54D-11 OVMax= 1.89D-07

 Cycle   7  Pass 1  IDiag  3:
 E=-0.894795499364989E-01 Delta-E=        0.000000000000 Rises=F Damp=F
 DIIS: error= 7.18D-09 at cycle   7 NSaved=   7.
 NSaved= 7 IEnMin= 7 EnMin=-0.894795499364989E-01 IErMin= 7 ErrMin= 7.18D-09
 ErrMax= 7.18D-09  0.00D+00 EMaxC= 1.00D-01 BMatC= 1.33D-15 BMatP= 2.57D-14
 IDIUse=1 WtCom= 1.00D+00 WtEn= 0.00D+00
 Coeff-Com:  0.289D-02-0.112D-01 0.257D-01-0.805D-01 0.194D+00-0.533D+00
 Coeff-Com:  0.140D+01
 Coeff:      0.289D-02-0.112D-01 0.257D-01-0.805D-01 0.194D+00-0.533D+00
 Coeff:      0.140D+01
 Gap=     0.372 Goal=   None    Shift=    0.000
 RMSDP=9.07D-09 MaxDP=4.02D-08 DE=-1.99D-13 OVMax= 4.64D-08

 Cycle   8  Pass 2  IDiag  1:
 SCF Done:  E(RAM1) = -0.894795499365E-01 A.U. after    8 cycles
            NFock=  7  Conv=0.91D-08     -V/T= 0.9984
 KE=-5.738999027218D+01 PE=-6.408015398636D+01 EE= 5.568365042383D+01
 Leave Link  502 at Fri Nov 10 14:53:19 2017, MaxMem=   134217728 cpu:               0.0 elap:               0.0
 (Enter /n/sw/g16_nehalem/g16/l801.exe)
 Range of M.O.s used for correlation:     1    15
 NBasis=    15 NAE=    11 NBE=    11 NFC=     0 NFV=     0
 NROrb=     15 NOA=    11 NOB=    11 NVA=     4 NVB=     4
 Leave Link  801 at Fri Nov 10 14:53:19 2017, MaxMem=   134217728 cpu:               0.0 elap:               0.0
 (Enter /n/sw/g16_nehalem/g16/l1101.exe)
 Leave Link 1101 at Fri Nov 10 14:53:19 2017, MaxMem=   134217728 cpu:               0.0 elap:               0.0
 (Enter /n/sw/g16_nehalem/g16/l1102.exe)
 Symmetrizing basis deriv contribution to polar:
 IMax=3 JMax=2 DiffMx= 0.00D+00
 Leave Link 1102 at Fri Nov 10 14:53:19 2017, MaxMem=   134217728 cpu:               0.0 elap:               0.0
 (Enter /n/sw/g16_nehalem/g16/l1110.exe)
 Leave Link 1110 at Fri Nov 10 14:53:19 2017, MaxMem=   134217728 cpu:               0.0 elap:               0.0
 (Enter /n/sw/g16_nehalem/g16/l1002.exe)
 Minotr:  Closed shell wavefunction.
 Leave Link 1002 at Fri Nov 10 14:53:19 2017, MaxMem=   134217728 cpu:               0.0 elap:               0.0
 (Enter /n/sw/g16_nehalem/g16/l701.exe)
 ... and contract with generalized density number  0.
 Compute integral first derivatives.
 Leave Link  701 at Fri Nov 10 14:53:19 2017, MaxMem=   134217728 cpu:               0.1 elap:               0.1
 (Enter /n/sw/g16_nehalem/g16/l702.exe)
 L702 exits ... SP integral derivatives will be done elsewhere.
 Leave Link  702 at Fri Nov 10 14:53:20 2017, MaxMem=   134217728 cpu:               0.0 elap:               0.0
 (Enter /n/sw/g16_nehalem/g16/l703.exe)
 Integral derivatives from FoFJK, PRISM(SPDF).
 Compute integral first derivatives, UseDBF=F ICtDFT=           0.
 Calling FoFJK, ICntrl=      2147 FMM=F ISym2X=0 I1Cent= 0 IOpClX= 0 NMat=1 NMatS=1 NMatT=0.
 FoFJK:  IHMeth= 8 ICntrl=    2147 DoSepK=F KAlg= 0 I1Cent=           0 FoldK=F
 IRaf=         0 NMat=       1 IRICut=       1 DoRegI=T DoRafI=F ISym2E= 0 IDoP0=3 IntGTp=3.
 FoFCou: FMM=F IPFlag=           0 FMFlag=      100000 FMFlg1=         800
         NFxFlg=           0 DoJE=F BraDBF=F KetDBF=F FulRan=T
         wScrn=  0.000000 ICntrl=      2147 IOpCl=  0 I1Cent=           0 NGrid=           0
         NMat0=    1 NMatS0=      1 NMatT0=    0 NMatD0=    1 NMtDS0=    0 NMtDT0=    0
 Symmetry not used in FoFCou.
 Leave Link  703 at Fri Nov 10 14:53:20 2017, MaxMem=   134217728 cpu:               0.0 elap:               0.0
 (Enter /n/sw/g16_nehalem/g16/l716.exe)
 Dipole        = 1.49399048D-01 5.13022613D-04 3.94994279D-05
 Polarizability= 0.00000000D+00 0.00000000D+00 0.00000000D+00
                 0.00000000D+00 0.00000000D+00 0.00000000D+00
 -------------------------------------------------------------------
 Center     Atomic                   Forces (Hartrees/Bohr)
 Number     Number              X              Y              Z
 -------------------------------------------------------------------
      1        6           0.002733234    0.000089050   -0.000012878
      2        1          -0.000023191   -0.000031830    0.000053714
      3        1          -0.000020552   -0.000034276   -0.000045845
      4        1          -0.000005048   -0.000035587    0.000003000
      5       17           0.000485950    0.000001928    0.000000554
      6       17          -0.003170393    0.000010714    0.000001455
 -------------------------------------------------------------------
 Cartesian Forces:  Max     0.003170393 RMS     0.000993752
 Z-matrix is all fixed cartesians, so copy forces.
 Leave Link  716 at Fri Nov 10 14:53:20 2017, MaxMem=   134217728 cpu:               0.0 elap:               0.0
 (Enter /n/sw/g16_nehalem/g16/l123.exe)
 IRC-IRC-IRC-IRC-IRC-IRC-IRC-IRC-IRC-IRC-IRC-IRC-IRC-IRC-IRC-IRC-IRC-IRC
 Pt  1 Step number   1 out of a maximum of  20
 Using modified Bulirsch-Stoer corrector integration.
   Using distance weighted interpolants to fit PES.
 PreDWI: IReCr0= 2 IReCr1= 1 IReCr2= 1 IReCr3= 1
 Modified Bulirsch-Stoer Extrapolation Cycles:
    EPS =    0.000010000000000
    Cycle     1 NS=    48
      PEZero:  N= 2 I= 1 D=  9.31D-05 Err=  2.45D-04
    Cycle     2 NS=    64 Truncation Error =  0.000245443
      PEZero:  N= 3 I= 2 D=  9.31D-05 Err=  1.64D-04
      PEZero:  N= 3 I= 1 D=  1.86D-04 Err=  1.09D-07
    Cycle     3 NS=    96 Truncation Error =  0.000000109
 BS completed in    3 cycles and     208 integration steps.
 Maximum DWI energy   std dev =  0.000000002 at pt    18
 Maximum DWI gradient std dev =  0.003148536 at pt     1
 SUMMARY OF CORRECTOR INTEGRATION:
   Predictor End Point Energy =    -0.089480
   Old End Point Energy       =    -0.089480
   Corrected End Point Energy =    -0.089517
   Predictor End-Start Dist.  =     0.035767
   Old End-Start Dist.        =     0.035767
   New End-Start Dist.        =     0.006762
   New End-Old End Dist.      =     0.035115
 CORRECTOR INTEGRATION CONVERGENCE:
   Recorrection delta-x convergence threshold:    0.010000
   Delta-x Convergence NOT Met
 IRC-IRC-IRC-IRC-IRC-IRC-IRC-IRC-IRC-IRC-IRC-IRC-IRC-IRC-IRC-IRC-IRC-IRC
 Leave Link  123 at Fri Nov 10 14:53:20 2017, MaxMem=   134217728 cpu:               0.0 elap:               0.0
 (Enter /n/sw/g16_nehalem/g16/l202.exe)
                          Input orientation:                          
 ---------------------------------------------------------------------
 Center     Atomic      Atomic             Coordinates (Angstroms)
 Number     Number       Type             X           Y           Z
 ---------------------------------------------------------------------
      1          6           0        0.019748    0.000378    0.000033
      2          1           0       -0.002192    0.561850    0.942858
      3          1           0       -0.002213    0.536509   -0.957431
      4          1           0       -0.002371   -1.096856    0.014657
      5         17           0        2.141365   -0.000092   -0.000007
      6         17           0       -2.147946   -0.000081   -0.000006
 ---------------------------------------------------------------------
                    Distance matrix (angstroms):
                    1          2          3          4          5
     1  C    0.000000
     2  H    1.097567   0.000000
     3  H    1.097568   1.900458   0.000000
     4  H    1.097554   1.900753   1.900746   0.000000
     5  Cl   2.121617   2.408238   2.408221   2.408051   0.000000
     6  Cl   2.167694   2.410192   2.410137   2.409694   4.289312
                    6
     6  Cl   0.000000
 Symmetry turned off by external request.
 Stoichiometry    CH3Cl2(1-)
 Framework group  C1[X(CH3Cl2)]
 Deg. of freedom    12
 Full point group                 C1      NOp   1
 Rotational constants (GHZ):         138.8117896           1.5621873           1.5621837
 Leave Link  202 at Fri Nov 10 14:53:20 2017, MaxMem=   134217728 cpu:               0.0 elap:               0.0
 (Enter /n/sw/g16_nehalem/g16/l301.exe)
 Standard basis: VSTO-6G (5D, 7F)
 Ernie: Thresh=  0.10000D-02 Tol=  0.10000D-05 Strict=F.
  NNHCO=     0 NNPyr=     0 NCTC=     0               EPep=         0.000000000
    EC=        31.456866812  ECS=         0.475108171   EG=         0.094724365
   EHC=         0.000000000  EAt=       -33.052413022  AtH=         0.613817027
 EPDDG=         0.000000000  ECC=        32.026699348 EAtT=        33.666230050
    15 basis functions,    90 primitive gaussians,    15 cartesian basis functions
    11 alpha electrons       11 beta electrons
       nuclear repulsion energy        65.6929293974 Hartrees.
 IExCor=    0 DFT=F Ex=HF Corr=None ExCW=0 ScaHFX=  1.000000
 ScaDFX=  1.000000  1.000000  1.000000  1.000000 ScalE2=  1.000000  1.000000
 IRadAn=      5 IRanWt=     -1 IRanGd=            0 ICorTp=0 IEmpDi=  4
 Integral buffers will be    131072 words long.
 Regular integral format.
 Two-electron integral symmetry is turned off.
 Leave Link  301 at Fri Nov 10 14:53:20 2017, MaxMem=   134217728 cpu:               0.1 elap:               0.1
 (Enter /n/sw/g16_nehalem/g16/l302.exe)
 Do NDO integrals.
 NPDir=0 NMtPBC=     1 NCelOv=     1 NCel=       1 NClECP=     1 NCelD=      1
         NCelK=      1 NCelE2=     1 NClLst=     1 CellRange=     0.0.
 One-electron integrals computed using PRISM.
 NBasis=    15 RedAO= F EigKep=  0.00D+00  NBF=    15
 NBsUse=    15 1.00D-04 EigRej=  0.00D+00 NBFU=    15
 Leave Link  302 at Fri Nov 10 14:53:20 2017, MaxMem=   134217728 cpu:               0.1 elap:               0.1
 (Enter /n/sw/g16_nehalem/g16/l303.exe)
 DipDrv:  MaxL=1.
 Leave Link  303 at Fri Nov 10 14:53:20 2017, MaxMem=   134217728 cpu:               0.0 elap:               0.0
 (Enter /n/sw/g16_nehalem/g16/l401.exe)
 Initial guess from the checkpoint file:  "/scratch/dhuang9_MeCl_ts_IRC_forward/Gau-14857.chk"
 B after Tr=     0.000003   -0.000011    0.000001
         Rot=    1.000000    0.000000    0.000000    0.000000 Ang=   0.00 deg.
 Guess basis will be translated and rotated to current coordinates.
 JPrj=0 DoOrth=T DoCkMO=T.
 Leave Link  401 at Fri Nov 10 14:53:20 2017, MaxMem=   134217728 cpu:               0.1 elap:               0.1
 (Enter /n/sw/g16_nehalem/g16/l502.exe)
 Keep J ints in memory in canonical form, NReq=859725.
 FoFCou: FMM=F IPFlag=           0 FMFlag=           0 FMFlg1=           0
         NFxFlg=           0 DoJE=F BraDBF=F KetDBF=F FulRan=T
         wScrn=  0.000000 ICntrl=       600 IOpCl=  2 I1Cent=           0 NGrid=           0
         NMat0=    1 NMatS0=     33 NMatT0=    0 NMatD0=    1 NMtDS0=    0 NMtDT0=    0
 Symmetry not used in FoFCou.
 Two-electron integral symmetry not used.
 Closed shell SCF:
 Using DIIS extrapolation, IDIIS=  1040.
 Overlap will be assumed to be unity.
 NGot=   134217728 LenX=   134156826 LenY=   134155944
 Requested convergence on RMS density matrix=1.00D-08 within 128 cycles.
 Requested convergence on MAX density matrix=1.00D-06.
 Requested convergence on             energy=1.00D-06.
 No special actions if energy rises.

 Cycle   1  Pass 1  IDiag  1:
 E=-0.894909965461608E-01
 DIIS: error= 6.25D-04 at cycle   1 NSaved=   1.
 NSaved= 1 IEnMin= 1 EnMin=-0.894909965461608E-01 IErMin= 1 ErrMin= 6.25D-04
 ErrMax= 6.25D-04  0.00D+00 EMaxC= 1.00D-01 BMatC= 4.61D-06 BMatP= 4.61D-06
 IDIUse=3 WtCom= 9.94D-01 WtEn= 6.25D-03
 Coeff-Com:  0.100D+01
 Coeff-En:   0.100D+01
 Coeff:      0.100D+01
 RMSDP=3.75D-04 MaxDP=1.78D-03              OVMax= 0.00D+00

 Cycle   2  Pass 1  IDiag  3:
 E=-0.895124176878710E-01 Delta-E=       -0.000021421142 Rises=F Damp=F
 DIIS: error= 1.87D-04 at cycle   2 NSaved=   2.
 NSaved= 2 IEnMin= 2 EnMin=-0.895124176878710E-01 IErMin= 2 ErrMin= 1.87D-04
 ErrMax= 1.87D-04  0.00D+00 EMaxC= 1.00D-01 BMatC= 6.43D-07 BMatP= 4.61D-06
 IDIUse=3 WtCom= 9.98D-01 WtEn= 1.87D-03
 Coeff-Com: -0.464D+00 0.146D+01
 Coeff-En:   0.000D+00 0.100D+01
 Coeff:     -0.463D+00 0.146D+01
 Gap=     0.372 Goal=   None    Shift=    0.000
 RMSDP=2.16D-04 MaxDP=9.87D-04 DE=-2.14D-05 OVMax= 1.74D-03

 Cycle   3  Pass 1  IDiag  3:
 E=-0.895164821808834E-01 Delta-E=       -0.000004064493 Rises=F Damp=F
 DIIS: error= 2.99D-05 at cycle   3 NSaved=   3.
 NSaved= 3 IEnMin= 3 EnMin=-0.895164821808834E-01 IErMin= 3 ErrMin= 2.99D-05
 ErrMax= 2.99D-05  0.00D+00 EMaxC= 1.00D-01 BMatC= 2.49D-08 BMatP= 6.43D-07
 IDIUse=1 WtCom= 1.00D+00 WtEn= 0.00D+00
 Coeff-Com:  0.168D+00-0.655D+00 0.149D+01
 Coeff:      0.168D+00-0.655D+00 0.149D+01
 Gap=     0.372 Goal=   None    Shift=    0.000
 RMSDP=4.66D-05 MaxDP=1.82D-04 DE=-4.06D-06 OVMax= 3.83D-04

 Cycle   4  Pass 1  IDiag  3:
 E=-0.895166309363447E-01 Delta-E=       -0.000000148755 Rises=F Damp=F
 DIIS: error= 1.12D-06 at cycle   4 NSaved=   4.
 NSaved= 4 IEnMin= 4 EnMin=-0.895166309363447E-01 IErMin= 4 ErrMin= 1.12D-06
 ErrMax= 1.12D-06  0.00D+00 EMaxC= 1.00D-01 BMatC= 5.32D-11 BMatP= 2.49D-08
 IDIUse=1 WtCom= 1.00D+00 WtEn= 0.00D+00
 Coeff-Com: -0.773D-01 0.302D+00-0.688D+00 0.146D+01
 Coeff:     -0.773D-01 0.302D+00-0.688D+00 0.146D+01
 Gap=     0.372 Goal=   None    Shift=    0.000
 RMSDP=1.68D-06 MaxDP=4.77D-06 DE=-1.49D-07 OVMax= 8.43D-06

 Cycle   5  Pass 1  IDiag  3:
 E=-0.895166312419207E-01 Delta-E=       -0.000000000306 Rises=F Damp=F
 DIIS: error= 4.20D-07 at cycle   5 NSaved=   5.
 NSaved= 5 IEnMin= 5 EnMin=-0.895166312419207E-01 IErMin= 5 ErrMin= 4.20D-07
 ErrMax= 4.20D-07  0.00D+00 EMaxC= 1.00D-01 BMatC= 4.03D-12 BMatP= 5.32D-11
 IDIUse=1 WtCom= 1.00D+00 WtEn= 0.00D+00
 Coeff-Com:  0.325D-01-0.127D+00 0.289D+00-0.742D+00 0.155D+01
 Coeff:      0.325D-01-0.127D+00 0.289D+00-0.742D+00 0.155D+01
 Gap=     0.372 Goal=   None    Shift=    0.000
 RMSDP=6.05D-07 MaxDP=2.35D-06 DE=-3.06D-10 OVMax= 2.76D-06

 Cycle   6  Pass 1  IDiag  3:
 E=-0.895166312708255E-01 Delta-E=       -0.000000000029 Rises=F Damp=F
 DIIS: error= 9.07D-08 at cycle   6 NSaved=   6.
 NSaved= 6 IEnMin= 6 EnMin=-0.895166312708255E-01 IErMin= 6 ErrMin= 9.07D-08
 ErrMax= 9.07D-08  0.00D+00 EMaxC= 1.00D-01 BMatC= 1.85D-13 BMatP= 4.03D-12
 IDIUse=1 WtCom= 1.00D+00 WtEn= 0.00D+00
 Coeff-Com: -0.157D-01 0.613D-01-0.140D+00 0.377D+00-0.903D+00 0.162D+01
 Coeff:     -0.157D-01 0.613D-01-0.140D+00 0.377D+00-0.903D+00 0.162D+01
 Gap=     0.372 Goal=   None    Shift=    0.000
 RMSDP=1.48D-07 MaxDP=8.21D-07 DE=-2.89D-11 OVMax= 8.60D-07

 Cycle   7  Pass 1  IDiag  3:
 E=-0.895166312722750E-01 Delta-E=       -0.000000000001 Rises=F Damp=F
 DIIS: error= 1.92D-08 at cycle   7 NSaved=   7.
 NSaved= 7 IEnMin= 7 EnMin=-0.895166312722750E-01 IErMin= 7 ErrMin= 1.92D-08
 ErrMax= 1.92D-08  0.00D+00 EMaxC= 1.00D-01 BMatC= 5.27D-15 BMatP= 1.85D-13
 IDIUse=1 WtCom= 1.00D+00 WtEn= 0.00D+00
 Coeff-Com:  0.527D-02-0.206D-01 0.471D-01-0.127D+00 0.306D+00-0.628D+00
 Coeff-Com:  0.142D+01
 Coeff:      0.527D-02-0.206D-01 0.471D-01-0.127D+00 0.306D+00-0.628D+00
 Coeff:      0.142D+01
 Gap=     0.372 Goal=   None    Shift=    0.000
 RMSDP=2.45D-08 MaxDP=1.61D-07 DE=-1.45D-12 OVMax= 1.66D-07

 Cycle   8  Pass 1  IDiag  3:
 E=-0.895166312722893E-01 Delta-E=        0.000000000000 Rises=F Damp=F
 DIIS: error= 4.66D-09 at cycle   8 NSaved=   8.
 NSaved= 8 IEnMin= 8 EnMin=-0.895166312722893E-01 IErMin= 8 ErrMin= 4.66D-09
 ErrMax= 4.66D-09  0.00D+00 EMaxC= 1.00D-01 BMatC= 2.99D-16 BMatP= 5.27D-15
 IDIUse=1 WtCom= 1.00D+00 WtEn= 0.00D+00
 Coeff-Com: -0.813D-03 0.318D-02-0.728D-02 0.199D-01-0.467D-01 0.103D+00
 Coeff-Com: -0.432D+00 0.136D+01
 Coeff:     -0.813D-03 0.318D-02-0.728D-02 0.199D-01-0.467D-01 0.103D+00
 Coeff:     -0.432D+00 0.136D+01
 Gap=     0.372 Goal=   None    Shift=    0.000
 RMSDP=6.13D-09 MaxDP=3.96D-08 DE=-1.42D-14 OVMax= 4.36D-08

 Cycle   9  Pass 2  IDiag  1:
 SCF Done:  E(RAM1) = -0.895166312723E-01 A.U. after    9 cycles
            NFock=  8  Conv=0.61D-08     -V/T= 0.9984
 KE=-5.738991590022D+01 PE=-6.407194715467D+01 EE= 5.567941702624D+01
 Leave Link  502 at Fri Nov 10 14:53:20 2017, MaxMem=   134217728 cpu:               0.0 elap:               0.0
 (Enter /n/sw/g16_nehalem/g16/l801.exe)
 Range of M.O.s used for correlation:     1    15
 NBasis=    15 NAE=    11 NBE=    11 NFC=     0 NFV=     0
 NROrb=     15 NOA=    11 NOB=    11 NVA=     4 NVB=     4
 Leave Link  801 at Fri Nov 10 14:53:20 2017, MaxMem=   134217728 cpu:               0.0 elap:               0.0
 (Enter /n/sw/g16_nehalem/g16/l1101.exe)
 Leave Link 1101 at Fri Nov 10 14:53:20 2017, MaxMem=   134217728 cpu:               0.0 elap:               0.0
 (Enter /n/sw/g16_nehalem/g16/l1102.exe)
 Symmetrizing basis deriv contribution to polar:
 IMax=3 JMax=2 DiffMx= 0.00D+00
 Leave Link 1102 at Fri Nov 10 14:53:20 2017, MaxMem=   134217728 cpu:               0.0 elap:               0.0
 (Enter /n/sw/g16_nehalem/g16/l1110.exe)
 Leave Link 1110 at Fri Nov 10 14:53:20 2017, MaxMem=   134217728 cpu:               0.0 elap:               0.0
 (Enter /n/sw/g16_nehalem/g16/l1002.exe)
 Minotr:  Closed shell wavefunction.
 Leave Link 1002 at Fri Nov 10 14:53:20 2017, MaxMem=   134217728 cpu:               0.0 elap:               0.0
 (Enter /n/sw/g16_nehalem/g16/l701.exe)
 ... and contract with generalized density number  0.
 Compute integral first derivatives.
 Leave Link  701 at Fri Nov 10 14:53:20 2017, MaxMem=   134217728 cpu:               0.1 elap:               0.1
 (Enter /n/sw/g16_nehalem/g16/l702.exe)
 L702 exits ... SP integral derivatives will be done elsewhere.
 Leave Link  702 at Fri Nov 10 14:53:20 2017, MaxMem=   134217728 cpu:               0.0 elap:               0.0
 (Enter /n/sw/g16_nehalem/g16/l703.exe)
 Integral derivatives from FoFJK, PRISM(SPDF).
 Compute integral first derivatives, UseDBF=F ICtDFT=           0.
 Calling FoFJK, ICntrl=      2147 FMM=F ISym2X=0 I1Cent= 0 IOpClX= 0 NMat=1 NMatS=1 NMatT=0.
 FoFJK:  IHMeth= 8 ICntrl=    2147 DoSepK=F KAlg= 0 I1Cent=           0 FoldK=F
 IRaf=         0 NMat=       1 IRICut=       1 DoRegI=T DoRafI=F ISym2E= 0 IDoP0=3 IntGTp=3.
 FoFCou: FMM=F IPFlag=           0 FMFlag=      100000 FMFlg1=         800
         NFxFlg=           0 DoJE=F BraDBF=F KetDBF=F FulRan=T
         wScrn=  0.000000 ICntrl=      2147 IOpCl=  0 I1Cent=           0 NGrid=           0
         NMat0=    1 NMatS0=      1 NMatT0=    0 NMatD0=    1 NMtDS0=    0 NMtDT0=    0
 Symmetry not used in FoFCou.
 Leave Link  703 at Fri Nov 10 14:53:21 2017, MaxMem=   134217728 cpu:               0.0 elap:               0.0
 (Enter /n/sw/g16_nehalem/g16/l716.exe)
 Dipole        = 1.98164491D-01 5.00804046D-04 3.93174889D-05
 Polarizability= 0.00000000D+00 0.00000000D+00 0.00000000D+00
                 0.00000000D+00 0.00000000D+00 0.00000000D+00
 -------------------------------------------------------------------
 Center     Atomic                   Forces (Hartrees/Bohr)
 Number     Number              X              Y              Z
 -------------------------------------------------------------------
      1        6           0.003622561    0.000017189   -0.000003191
      2        1          -0.000032575   -0.000020854    0.000004918
      3        1          -0.000031228   -0.000020049   -0.000004224
      4        1          -0.000022275    0.000006591    0.000000788
      5       17          -0.000011030    0.000006387    0.000000638
      6       17          -0.003525453    0.000010736    0.000001071
 -------------------------------------------------------------------
 Cartesian Forces:  Max     0.003622561 RMS     0.001191540
 Z-matrix is all fixed cartesians, so copy forces.
 Leave Link  716 at Fri Nov 10 14:53:21 2017, MaxMem=   134217728 cpu:               0.0 elap:               0.0
 (Enter /n/sw/g16_nehalem/g16/l123.exe)
 IRC-IRC-IRC-IRC-IRC-IRC-IRC-IRC-IRC-IRC-IRC-IRC-IRC-IRC-IRC-IRC-IRC-IRC
 Error in corrector energy =           0.0000000002
 Magnitude of corrector gradient =     0.0050551699
 Magnitude of analytic gradient =      0.0050552751
 Magnitude of difference =             0.0000003634
 Angle between gradients (degrees)=    0.0039
 Pt  1 Step number   2 out of a maximum of  20
 Using modified Bulirsch-Stoer corrector integration.
   Using distance weighted interpolants to fit PES.
 PreDWI: IReCr0= 2 IReCr1= 1 IReCr2= 1 IReCr3= 1
 Modified Bulirsch-Stoer Extrapolation Cycles:
    EPS =    0.000010000000000
    Cycle     1 NS=    48
      PEZero:  N= 2 I= 1 D=  9.31D-05 Err=  2.45D-04
    Cycle     2 NS=    64 Truncation Error =  0.000245448
      PEZero:  N= 3 I= 2 D=  9.31D-05 Err=  1.64D-04
      PEZero:  N= 3 I= 1 D=  1.86D-04 Err=  1.09D-07
    Cycle     3 NS=    96 Truncation Error =  0.000000109
 BS completed in    3 cycles and     208 integration steps.
 Maximum DWI energy   std dev =  0.000000000 at pt     1
 Maximum DWI gradient std dev =  0.000016764 at pt     1
 SUMMARY OF CORRECTOR INTEGRATION:
   Predictor End Point Energy =    -0.089480
   Old End Point Energy       =    -0.089517
   Corrected End Point Energy =    -0.089517
   Predictor End-Start Dist.  =     0.035767
   Old End-Start Dist.        =     0.006762
   New End-Start Dist.        =     0.006762
   New End-Old End Dist.      =     0.000001
 CORRECTOR INTEGRATION CONVERGENCE:
   Recorrection delta-x convergence threshold:    0.010000
   Delta-x Convergence Met
 Point Number:   1          Path Number:   1
                    CURRENT STRUCTURE
                Cartesian Coordinates (Ang):                
 ---------------------------------------------------------------------
 Center     Atomic                     Coordinates (Angstroms)
 Number     Number                        X           Y           Z
 ---------------------------------------------------------------------
      1          6                    0.019748    0.000378    0.000033
      2          1                   -0.002192    0.561850    0.942858
      3          1                   -0.002213    0.536509   -0.957431
      4          1                   -0.002371   -1.096856    0.014657
      5         17                    2.141365   -0.000092   -0.000007
      6         17                   -2.147946   -0.000081   -0.000006
 ---------------------------------------------------------------------
   CHANGE IN THE REACTION COORDINATE =    0.00676
   NET REACTION COORDINATE UP TO THIS POINT =    0.00676
  # OF POINTS ALONG THE PATH =   1
  # OF STEPS =   2

 Calculating another point on the path.
 Point Number  2 in FORWARD path direction.
 Using LQA Reaction Path Following.
   LQA: T_Est iteration completed in    3 iterations.
 IRC-IRC-IRC-IRC-IRC-IRC-IRC-IRC-IRC-IRC-IRC-IRC-IRC-IRC-IRC-IRC-IRC-IRC
 Leave Link  123 at Fri Nov 10 14:53:21 2017, MaxMem=   134217728 cpu:               0.0 elap:               0.0
 (Enter /n/sw/g16_nehalem/g16/l202.exe)
                          Input orientation:                          
 ---------------------------------------------------------------------
 Center     Atomic      Atomic             Coordinates (Angstroms)
 Number     Number       Type             X           Y           Z
 ---------------------------------------------------------------------
      1          6           0        0.024562    0.000377    0.000030
      2          1           0       -0.002713    0.561677    0.942848
      3          1           0       -0.002723    0.536342   -0.957417
      4          1           0       -0.002803   -1.096772    0.014661
      5         17           0        2.141253   -0.000089   -0.000007
      6         17           0       -2.149444   -0.000076   -0.000006
 ---------------------------------------------------------------------
                    Distance matrix (angstroms):
                    1          2          3          4          5
     1  C    0.000000
     2  H    1.097591   0.000000
     3  H    1.097591   1.900434   0.000000
     4  H    1.097588   1.900522   1.900525   0.000000
     5  Cl   2.116691   2.408558   2.408532   2.408299   0.000000
     6  Cl   2.174007   2.411015   2.410973   2.410607   4.290698
                    6
     6  Cl   0.000000
 Symmetry turned off by external request.
 Stoichiometry    CH3Cl2(1-)
 Framework group  C1[X(CH3Cl2)]
 Deg. of freedom    12
 Full point group                 C1      NOp   1
 Rotational constants (GHZ):         138.8349621           1.5611696           1.5611685
 Leave Link  202 at Fri Nov 10 14:53:21 2017, MaxMem=   134217728 cpu:               0.0 elap:               0.0
 (Enter /n/sw/g16_nehalem/g16/l301.exe)
 Standard basis: VSTO-6G (5D, 7F)
 Ernie: Thresh=  0.10000D-02 Tol=  0.10000D-05 Strict=F.
  NNHCO=     0 NNPyr=     0 NCTC=     0               EPep=         0.000000000
    EC=        31.450579141  ECS=         0.474999410   EG=         0.094653815
   EHC=         0.000000000  EAt=       -33.052413022  AtH=         0.613817027
 EPDDG=         0.000000000  ECC=        32.020232365 EAtT=        33.666230050
    15 basis functions,    90 primitive gaussians,    15 cartesian basis functions
    11 alpha electrons       11 beta electrons
       nuclear repulsion energy        65.6864624146 Hartrees.
 IExCor=    0 DFT=F Ex=HF Corr=None ExCW=0 ScaHFX=  1.000000
 ScaDFX=  1.000000  1.000000  1.000000  1.000000 ScalE2=  1.000000  1.000000
 IRadAn=      5 IRanWt=     -1 IRanGd=            0 ICorTp=0 IEmpDi=  4
 Integral buffers will be    131072 words long.
 Regular integral format.
 Two-electron integral symmetry is turned off.
 Leave Link  301 at Fri Nov 10 14:53:21 2017, MaxMem=   134217728 cpu:               0.1 elap:               0.1
 (Enter /n/sw/g16_nehalem/g16/l302.exe)
 Do NDO integrals.
 NPDir=0 NMtPBC=     1 NCelOv=     1 NCel=       1 NClECP=     1 NCelD=      1
         NCelK=      1 NCelE2=     1 NClLst=     1 CellRange=     0.0.
 One-electron integrals computed using PRISM.
 NBasis=    15 RedAO= F EigKep=  0.00D+00  NBF=    15
 NBsUse=    15 1.00D-04 EigRej=  0.00D+00 NBFU=    15
 Leave Link  302 at Fri Nov 10 14:53:21 2017, MaxMem=   134217728 cpu:               0.1 elap:               0.1
 (Enter /n/sw/g16_nehalem/g16/l303.exe)
 DipDrv:  MaxL=1.
 Leave Link  303 at Fri Nov 10 14:53:21 2017, MaxMem=   134217728 cpu:               0.0 elap:               0.0
 (Enter /n/sw/g16_nehalem/g16/l401.exe)
 Initial guess from the checkpoint file:  "/scratch/dhuang9_MeCl_ts_IRC_forward/Gau-14857.chk"
 B after Tr=     0.000002   -0.000006    0.000000
         Rot=    1.000000    0.000000    0.000000    0.000000 Ang=   0.00 deg.
 Guess basis will be translated and rotated to current coordinates.
 JPrj=0 DoOrth=T DoCkMO=T.
 Leave Link  401 at Fri Nov 10 14:53:21 2017, MaxMem=   134217728 cpu:               0.1 elap:               0.1
 (Enter /n/sw/g16_nehalem/g16/l502.exe)
 Keep J ints in memory in canonical form, NReq=859725.
 FoFCou: FMM=F IPFlag=           0 FMFlag=           0 FMFlg1=           0
         NFxFlg=           0 DoJE=F BraDBF=F KetDBF=F FulRan=T
         wScrn=  0.000000 ICntrl=       600 IOpCl=  2 I1Cent=           0 NGrid=           0
         NMat0=    1 NMatS0=     33 NMatT0=    0 NMatD0=    1 NMtDS0=    0 NMtDT0=    0
 Symmetry not used in FoFCou.
 Two-electron integral symmetry not used.
 Closed shell SCF:
 Using DIIS extrapolation, IDIIS=  1040.
 Overlap will be assumed to be unity.
 NGot=   134217728 LenX=   134156826 LenY=   134155944
 Requested convergence on RMS density matrix=1.00D-08 within 128 cycles.
 Requested convergence on MAX density matrix=1.00D-06.
 Requested convergence on             energy=1.00D-06.
 No special actions if energy rises.

 Cycle   1  Pass 1  IDiag  1:
 E=-0.895391614053977E-01
 DIIS: error= 6.17D-04 at cycle   1 NSaved=   1.
 NSaved= 1 IEnMin= 1 EnMin=-0.895391614053977E-01 IErMin= 1 ErrMin= 6.17D-04
 ErrMax= 6.17D-04  0.00D+00 EMaxC= 1.00D-01 BMatC= 4.49D-06 BMatP= 4.49D-06
 IDIUse=3 WtCom= 9.94D-01 WtEn= 6.17D-03
 Coeff-Com:  0.100D+01
 Coeff-En:   0.100D+01
 Coeff:      0.100D+01
 RMSDP=3.71D-04 MaxDP=1.79D-03              OVMax= 0.00D+00

 Cycle   2  Pass 1  IDiag  3:
 E=-0.895600388308821E-01 Delta-E=       -0.000020877425 Rises=F Damp=F
 DIIS: error= 1.85D-04 at cycle   2 NSaved=   2.
 NSaved= 2 IEnMin= 2 EnMin=-0.895600388308821E-01 IErMin= 2 ErrMin= 1.85D-04
 ErrMax= 1.85D-04  0.00D+00 EMaxC= 1.00D-01 BMatC= 6.27D-07 BMatP= 4.49D-06
 IDIUse=3 WtCom= 9.98D-01 WtEn= 1.85D-03
 Coeff-Com: -0.464D+00 0.146D+01
 Coeff-En:   0.000D+00 0.100D+01
 Coeff:     -0.463D+00 0.146D+01
 Gap=     0.371 Goal=   None    Shift=    0.000
 RMSDP=2.13D-04 MaxDP=9.91D-04 DE=-2.09D-05 OVMax= 1.72D-03

 Cycle   3  Pass 1  IDiag  3:
 E=-0.895640072952801E-01 Delta-E=       -0.000003968464 Rises=F Damp=F
 DIIS: error= 2.99D-05 at cycle   3 NSaved=   3.
 NSaved= 3 IEnMin= 3 EnMin=-0.895640072952801E-01 IErMin= 3 ErrMin= 2.99D-05
 ErrMax= 2.99D-05  0.00D+00 EMaxC= 1.00D-01 BMatC= 2.42D-08 BMatP= 6.27D-07
 IDIUse=1 WtCom= 1.00D+00 WtEn= 0.00D+00
 Coeff-Com:  0.168D+00-0.656D+00 0.149D+01
 Coeff:      0.168D+00-0.656D+00 0.149D+01
 Gap=     0.371 Goal=   None    Shift=    0.000
 RMSDP=4.61D-05 MaxDP=1.83D-04 DE=-3.97D-06 OVMax= 3.77D-04

 Cycle   4  Pass 1  IDiag  3:
 E=-0.895641527166333E-01 Delta-E=       -0.000000145421 Rises=F Damp=F
 DIIS: error= 1.13D-06 at cycle   4 NSaved=   4.
 NSaved= 4 IEnMin= 4 EnMin=-0.895641527166333E-01 IErMin= 4 ErrMin= 1.13D-06
 ErrMax= 1.13D-06  0.00D+00 EMaxC= 1.00D-01 BMatC= 5.62D-11 BMatP= 2.42D-08
 IDIUse=1 WtCom= 1.00D+00 WtEn= 0.00D+00
 Coeff-Com: -0.830D-01 0.324D+00-0.737D+00 0.150D+01
 Coeff:     -0.830D-01 0.324D+00-0.737D+00 0.150D+01
 Gap=     0.371 Goal=   None    Shift=    0.000
 RMSDP=1.77D-06 MaxDP=5.35D-06 DE=-1.45D-07 OVMax= 1.07D-05

 Cycle   5  Pass 1  IDiag  3:
 E=-0.895641530480589E-01 Delta-E=       -0.000000000331 Rises=F Damp=F
 DIIS: error= 4.29D-07 at cycle   5 NSaved=   5.
 NSaved= 5 IEnMin= 5 EnMin=-0.895641530480589E-01 IErMin= 5 ErrMin= 4.29D-07
 ErrMax= 4.29D-07  0.00D+00 EMaxC= 1.00D-01 BMatC= 4.49D-12 BMatP= 5.62D-11
 IDIUse=1 WtCom= 1.00D+00 WtEn= 0.00D+00
 Coeff-Com:  0.372D-01-0.145D+00 0.331D+00-0.806D+00 0.158D+01
 Coeff:      0.372D-01-0.145D+00 0.331D+00-0.806D+00 0.158D+01
 Gap=     0.371 Goal=   None    Shift=    0.000
 RMSDP=6.17D-07 MaxDP=2.05D-06 DE=-3.31D-10 OVMax= 3.31D-06

 Cycle   6  Pass 1  IDiag  3:
 E=-0.895641530777453E-01 Delta-E=       -0.000000000030 Rises=F Damp=F
 DIIS: error= 6.67D-08 at cycle   6 NSaved=   6.
 NSaved= 6 IEnMin= 6 EnMin=-0.895641530777453E-01 IErMin= 6 ErrMin= 6.67D-08
 ErrMax= 6.67D-08  0.00D+00 EMaxC= 1.00D-01 BMatC= 1.40D-13 BMatP= 4.49D-12
 IDIUse=1 WtCom= 1.00D+00 WtEn= 0.00D+00
 Coeff-Com: -0.178D-01 0.696D-01-0.159D+00 0.411D+00-0.899D+00 0.160D+01
 Coeff:     -0.178D-01 0.696D-01-0.159D+00 0.411D+00-0.899D+00 0.160D+01
 Gap=     0.371 Goal=   None    Shift=    0.000
 RMSDP=1.17D-07 MaxDP=4.64D-07 DE=-2.97D-11 OVMax= 8.03D-07

 Cycle   7  Pass 1  IDiag  3:
 E=-0.895641530787969E-01 Delta-E=       -0.000000000001 Rises=F Damp=F
 DIIS: error= 1.52D-08 at cycle   7 NSaved=   7.
 NSaved= 7 IEnMin= 7 EnMin=-0.895641530787969E-01 IErMin= 7 ErrMin= 1.52D-08
 ErrMax= 1.52D-08  0.00D+00 EMaxC= 1.00D-01 BMatC= 3.99D-15 BMatP= 1.40D-13
 IDIUse=1 WtCom= 1.00D+00 WtEn= 0.00D+00
 Coeff-Com:  0.602D-02-0.235D-01 0.537D-01-0.142D+00 0.314D+00-0.625D+00
 Coeff-Com:  0.142D+01
 Coeff:      0.602D-02-0.235D-01 0.537D-01-0.142D+00 0.314D+00-0.625D+00
 Coeff:      0.142D+01
 Gap=     0.371 Goal=   None    Shift=    0.000
 RMSDP=2.12D-08 MaxDP=1.21D-07 DE=-1.05D-12 OVMax= 1.93D-07

 Cycle   8  Pass 1  IDiag  3:
 E=-0.895641530788112E-01 Delta-E=        0.000000000000 Rises=F Damp=F
 DIIS: error= 4.32D-09 at cycle   8 NSaved=   8.
 NSaved= 8 IEnMin= 8 EnMin=-0.895641530788112E-01 IErMin= 8 ErrMin= 4.32D-09
 ErrMax= 4.32D-09  0.00D+00 EMaxC= 1.00D-01 BMatC= 2.74D-16 BMatP= 3.99D-15
 IDIUse=1 WtCom= 1.00D+00 WtEn= 0.00D+00
 Coeff-Com: -0.160D-03 0.629D-03-0.145D-02 0.461D-02-0.100D-01 0.292D-01
 Coeff-Com: -0.355D+00 0.133D+01
 Coeff:     -0.160D-03 0.629D-03-0.145D-02 0.461D-02-0.100D-01 0.292D-01
 Coeff:     -0.355D+00 0.133D+01
 Gap=     0.371 Goal=   None    Shift=    0.000
 RMSDP=6.46D-09 MaxDP=3.90D-08 DE=-1.42D-14 OVMax= 6.07D-08

 Cycle   9  Pass 2  IDiag  1:
 SCF Done:  E(RAM1) = -0.895641530788E-01 A.U. after    9 cycles
            NFock=  8  Conv=0.65D-08     -V/T= 0.9984
 KE=-5.738991514362D+01 PE=-6.405875543615D+01 EE= 5.567264401204D+01
 Leave Link  502 at Fri Nov 10 14:53:21 2017, MaxMem=   134217728 cpu:               0.1 elap:               0.0
 (Enter /n/sw/g16_nehalem/g16/l801.exe)
 Range of M.O.s used for correlation:     1    15
 NBasis=    15 NAE=    11 NBE=    11 NFC=     0 NFV=     0
 NROrb=     15 NOA=    11 NOB=    11 NVA=     4 NVB=     4
 Leave Link  801 at Fri Nov 10 14:53:21 2017, MaxMem=   134217728 cpu:               0.0 elap:               0.0
 (Enter /n/sw/g16_nehalem/g16/l1101.exe)
 Leave Link 1101 at Fri Nov 10 14:53:21 2017, MaxMem=   134217728 cpu:               0.0 elap:               0.0
 (Enter /n/sw/g16_nehalem/g16/l1102.exe)
 Symmetrizing basis deriv contribution to polar:
 IMax=3 JMax=2 DiffMx= 0.00D+00
 Leave Link 1102 at Fri Nov 10 14:53:21 2017, MaxMem=   134217728 cpu:               0.0 elap:               0.0
 (Enter /n/sw/g16_nehalem/g16/l1110.exe)
 Leave Link 1110 at Fri Nov 10 14:53:21 2017, MaxMem=   134217728 cpu:               0.0 elap:               0.0
 (Enter /n/sw/g16_nehalem/g16/l1002.exe)
 Minotr:  Closed shell wavefunction.
 Leave Link 1002 at Fri Nov 10 14:53:21 2017, MaxMem=   134217728 cpu:               0.0 elap:               0.0
 (Enter /n/sw/g16_nehalem/g16/l701.exe)
 ... and contract with generalized density number  0.
 Compute integral first derivatives.
 Leave Link  701 at Fri Nov 10 14:53:21 2017, MaxMem=   134217728 cpu:               0.1 elap:               0.1
 (Enter /n/sw/g16_nehalem/g16/l702.exe)
 L702 exits ... SP integral derivatives will be done elsewhere.
 Leave Link  702 at Fri Nov 10 14:53:21 2017, MaxMem=   134217728 cpu:               0.0 elap:               0.0
 (Enter /n/sw/g16_nehalem/g16/l703.exe)
 Integral derivatives from FoFJK, PRISM(SPDF).
 Compute integral first derivatives, UseDBF=F ICtDFT=           0.
 Calling FoFJK, ICntrl=      2147 FMM=F ISym2X=0 I1Cent= 0 IOpClX= 0 NMat=1 NMatS=1 NMatT=0.
 FoFJK:  IHMeth= 8 ICntrl=    2147 DoSepK=F KAlg= 0 I1Cent=           0 FoldK=F
 IRaf=         0 NMat=       1 IRICut=       1 DoRegI=T DoRafI=F ISym2E= 0 IDoP0=3 IntGTp=3.
 FoFCou: FMM=F IPFlag=           0 FMFlag=      100000 FMFlg1=         800
         NFxFlg=           0 DoJE=F BraDBF=F KetDBF=F FulRan=T
         wScrn=  0.000000 ICntrl=      2147 IOpCl=  0 I1Cent=           0 NGrid=           0
         NMat0=    1 NMatS0=      1 NMatT0=    0 NMatD0=    1 NMtDS0=    0 NMtDT0=    0
 Symmetry not used in FoFCou.
 Leave Link  703 at Fri Nov 10 14:53:21 2017, MaxMem=   134217728 cpu:               0.0 elap:               0.0
 (Enter /n/sw/g16_nehalem/g16/l716.exe)
 Dipole        = 2.46292526D-01 4.79682134D-04 3.75354982D-05
 Polarizability= 0.00000000D+00 0.00000000D+00 0.00000000D+00
                 0.00000000D+00 0.00000000D+00 0.00000000D+00
 -------------------------------------------------------------------
 Center     Atomic                   Forces (Hartrees/Bohr)
 Number     Number              X              Y              Z
 -------------------------------------------------------------------
      1        6           0.004497099   -0.000009085   -0.000001446
      2        1          -0.000039735   -0.000014858   -0.000016391
      3        1          -0.000039304   -0.000014241    0.000016540
      4        1          -0.000036019    0.000019521   -0.000000224
      5       17          -0.000549036    0.000008964    0.000000723
      6       17          -0.003833005    0.000009699    0.000000797
 -------------------------------------------------------------------
 Cartesian Forces:  Max     0.004497099 RMS     0.001398874
 Z-matrix is all fixed cartesians, so copy forces.
 Leave Link  716 at Fri Nov 10 14:53:22 2017, MaxMem=   134217728 cpu:               0.0 elap:               0.0
 (Enter /n/sw/g16_nehalem/g16/l123.exe)
 IRC-IRC-IRC-IRC-IRC-IRC-IRC-IRC-IRC-IRC-IRC-IRC-IRC-IRC-IRC-IRC-IRC-IRC
 Pt  2 Step number   1 out of a maximum of  20
 Using modified Bulirsch-Stoer corrector integration.
   Using distance weighted interpolants to fit PES.
 PreDWI: IReCr0= 2 IReCr1= 1 IReCr2= 1 IReCr3= 1
 Modified Bulirsch-Stoer Extrapolation Cycles:
    EPS =    0.000010000000000
    Cycle     1 NS=    48
      PEZero:  N= 2 I= 1 D=  1.86D-04 Err=  1.71D-05
    Cycle     2 NS=    64 Truncation Error =  0.000017054
      PEZero:  N= 3 I= 2 D=  1.86D-04 Err=  1.14D-05
      PEZero:  N= 3 I= 1 D=  3.72D-04 Err=  1.68D-08
    Cycle     3 NS=    96 Truncation Error =  0.000000017
 BS completed in    3 cycles and     208 integration steps.
 Maximum DWI energy   std dev =  0.000000002 at pt    72
 Maximum DWI gradient std dev =  0.004926459 at pt    57
 SUMMARY OF CORRECTOR INTEGRATION:
   Predictor End Point Energy =    -0.089564
   Old End Point Energy       =    -0.089564
   Corrected End Point Energy =    -0.089564
   Predictor End-Start Dist.  =     0.035747
   Old End-Start Dist.        =     0.035747
   New End-Start Dist.        =     0.035737
   New End-Old End Dist.      =     0.000059
 CORRECTOR INTEGRATION CONVERGENCE:
   Recorrection delta-x convergence threshold:    0.010000
   Delta-x Convergence Met
 Point Number:   2          Path Number:   1
                    CURRENT STRUCTURE
                Cartesian Coordinates (Ang):                
 ---------------------------------------------------------------------
 Center     Atomic                     Coordinates (Angstroms)
 Number     Number                        X           Y           Z
 ---------------------------------------------------------------------
      1          6                    0.024560    0.000378    0.000030
      2          1                   -0.002709    0.561668    0.942833
      3          1                   -0.002719    0.536333   -0.957402
      4          1                   -0.002797   -1.096756    0.014661
      5         17                    2.141254   -0.000089   -0.000007
      6         17                   -2.149445   -0.000076   -0.000006
 ---------------------------------------------------------------------
   CHANGE IN THE REACTION COORDINATE =    0.03574
   NET REACTION COORDINATE UP TO THIS POINT =    0.04250
  # OF POINTS ALONG THE PATH =   2
  # OF STEPS =   1

 Calculating another point on the path.
 Point Number  3 in FORWARD path direction.
 Using LQA Reaction Path Following.
   LQA: T_Est iteration completed in    3 iterations.
 IRC-IRC-IRC-IRC-IRC-IRC-IRC-IRC-IRC-IRC-IRC-IRC-IRC-IRC-IRC-IRC-IRC-IRC
 Leave Link  123 at Fri Nov 10 14:53:22 2017, MaxMem=   134217728 cpu:               0.0 elap:               0.0
 (Enter /n/sw/g16_nehalem/g16/l202.exe)
                          Input orientation:                          
 ---------------------------------------------------------------------
 Center     Atomic      Atomic             Coordinates (Angstroms)
 Number     Number       Type             X           Y           Z
 ---------------------------------------------------------------------
      1          6           0        0.029469    0.000366    0.000029
      2          1           0       -0.003233    0.561580    0.942751
      3          1           0       -0.003240    0.536249   -0.957320
      4          1           0       -0.003294   -1.096661    0.014659
      5         17           0        2.140980   -0.000086   -0.000007
      6         17           0       -2.150811   -0.000073   -0.000006
 ---------------------------------------------------------------------
                    Distance matrix (angstroms):
                    1          2          3          4          5
     1  C    0.000000
     2  H    1.097614   0.000000
     3  H    1.097614   1.900240   0.000000
     4  H    1.097614   1.900295   1.900300   0.000000
     5  Cl   2.111510   2.408715   2.408688   2.408444   0.000000
     6  Cl   2.180280   2.411708   2.411671   2.411338   4.291791
                    6
     6  Cl   0.000000
 Symmetry turned off by external request.
 Stoichiometry    CH3Cl2(1-)
 Framework group  C1[X(CH3Cl2)]
 Deg. of freedom    12
 Full point group                 C1      NOp   1
 Rotational constants (GHZ):         138.8664622           1.5603630           1.5603623
[...]
 ErrMax= 3.69D-06  0.00D+00 EMaxC= 1.00D-01 BMatC= 1.86D-10 BMatP= 5.58D-09
 IDIUse=1 WtCom= 1.00D+00 WtEn= 0.00D+00
 Coeff-Com:  0.188D+00-0.667D+00 0.148D+01
 Coeff:      0.188D+00-0.667D+00 0.148D+01
 Gap=     0.327 Goal=   None    Shift=    0.000
 RMSDP=5.22D-06 MaxDP=3.90D-05 DE=-4.81D-08 OVMax= 4.89D-05

 Cycle   4  Pass 1  IDiag  3:
 E=-0.103887380638071     Delta-E=       -0.000000001483 Rises=F Damp=F
 DIIS: error= 5.28D-07 at cycle   4 NSaved=   4.
 NSaved= 4 IEnMin= 4 EnMin=-0.103887380638071     IErMin= 4 ErrMin= 5.28D-07
 ErrMax= 5.28D-07  0.00D+00 EMaxC= 1.00D-01 BMatC= 5.57D-12 BMatP= 1.86D-10
 IDIUse=1 WtCom= 1.00D+00 WtEn= 0.00D+00
 Coeff-Com: -0.107D+00 0.382D+00-0.892D+00 0.162D+01
 Coeff:     -0.107D+00 0.382D+00-0.892D+00 0.162D+01
 Gap=     0.327 Goal=   None    Shift=    0.000
 RMSDP=6.35D-07 MaxDP=3.53D-06 DE=-1.48D-09 OVMax= 3.57D-06

 Cycle   5  Pass 1  IDiag  3:
 E=-0.103887380672404     Delta-E=       -0.000000000034 Rises=F Damp=F
 DIIS: error= 6.96D-08 at cycle   5 NSaved=   5.
 NSaved= 5 IEnMin= 5 EnMin=-0.103887380672404     IErMin= 5 ErrMin= 6.96D-08
 ErrMax= 6.96D-08  0.00D+00 EMaxC= 1.00D-01 BMatC= 1.53D-13 BMatP= 5.57D-12
 IDIUse=1 WtCom= 1.00D+00 WtEn= 0.00D+00
 Coeff-Com:  0.361D-01-0.130D+00 0.309D+00-0.664D+00 0.145D+01
 Coeff:      0.361D-01-0.130D+00 0.309D+00-0.664D+00 0.145D+01
 Gap=     0.327 Goal=   None    Shift=    0.000
 RMSDP=9.63D-08 MaxDP=5.61D-07 DE=-3.43D-11 OVMax= 4.09D-07

 Cycle   6  Pass 1  IDiag  3:
 E=-0.103887380673186     Delta-E=       -0.000000000001 Rises=F Damp=F
 DIIS: error= 6.78D-09 at cycle   6 NSaved=   6.
 NSaved= 6 IEnMin= 6 EnMin=-0.103887380673186     IErMin= 6 ErrMin= 6.78D-09
 ErrMax= 6.78D-09  0.00D+00 EMaxC= 1.00D-01 BMatC= 2.21D-15 BMatP= 1.53D-13
 IDIUse=1 WtCom= 1.00D+00 WtEn= 0.00D+00
 Coeff-Com: -0.170D-01 0.612D-01-0.145D+00 0.316D+00-0.731D+00 0.152D+01
 Coeff:     -0.170D-01 0.612D-01-0.145D+00 0.316D+00-0.731D+00 0.152D+01
 Gap=     0.327 Goal=   None    Shift=    0.000
 RMSDP=1.18D-08 MaxDP=4.61D-08 DE=-7.82D-13 OVMax= 6.94D-08

 Cycle   7  Pass 1  IDiag  3:
 E=-0.103887380673228     Delta-E=        0.000000000000 Rises=F Damp=F
 DIIS: error= 2.42D-09 at cycle   7 NSaved=   7.
 NSaved= 7 IEnMin= 7 EnMin=-0.103887380673228     IErMin= 7 ErrMin= 2.42D-09
 ErrMax= 2.42D-09  0.00D+00 EMaxC= 1.00D-01 BMatC= 1.03D-16 BMatP= 2.21D-15
 IDIUse=1 WtCom= 1.00D+00 WtEn= 0.00D+00
 Coeff-Com:  0.117D-01-0.421D-01 0.100D+00-0.217D+00 0.505D+00-0.113D+01
 Coeff-Com:  0.177D+01
 Coeff:      0.117D-01-0.421D-01 0.100D+00-0.217D+00 0.505D+00-0.113D+01
 Coeff:      0.177D+01
 Gap=     0.327 Goal=   None    Shift=    0.000
 RMSDP=3.55D-09 MaxDP=1.83D-08 DE=-4.26D-14 OVMax= 3.00D-08

 Cycle   8  Pass 2  IDiag  1:
 SCF Done:  E(RAM1) = -0.103887380673     A.U. after    8 cycles
            NFock=  7  Conv=0.35D-08     -V/T= 0.9982
 KE=-5.725914195256D+01 PE=-6.168490196673D+01 EE= 5.428323747988D+01
 Leave Link  502 at Fri Nov 10 14:55:23 2017, MaxMem=   134217728 cpu:               0.0 elap:               0.0
 (Enter /n/sw/g16_nehalem/g16/l801.exe)
 Range of M.O.s used for correlation:     1    15
 NBasis=    15 NAE=    11 NBE=    11 NFC=     0 NFV=     0
 NROrb=     15 NOA=    11 NOB=    11 NVA=     4 NVB=     4
 Leave Link  801 at Fri Nov 10 14:55:23 2017, MaxMem=   134217728 cpu:               0.0 elap:               0.0
 (Enter /n/sw/g16_nehalem/g16/l1101.exe)
 Leave Link 1101 at Fri Nov 10 14:55:23 2017, MaxMem=   134217728 cpu:               0.0 elap:               0.0
 (Enter /n/sw/g16_nehalem/g16/l1102.exe)
 Symmetrizing basis deriv contribution to polar:
 IMax=3 JMax=2 DiffMx= 0.00D+00
 Leave Link 1102 at Fri Nov 10 14:55:23 2017, MaxMem=   134217728 cpu:               0.0 elap:               0.0
 (Enter /n/sw/g16_nehalem/g16/l1110.exe)
 Leave Link 1110 at Fri Nov 10 14:55:23 2017, MaxMem=   134217728 cpu:               0.0 elap:               0.0
 (Enter /n/sw/g16_nehalem/g16/l1002.exe)
 Minotr:  Closed shell wavefunction.
 Leave Link 1002 at Fri Nov 10 14:55:23 2017, MaxMem=   134217728 cpu:               0.0 elap:               0.0
 (Enter /n/sw/g16_nehalem/g16/l701.exe)
 ... and contract with generalized density number  0.
 Compute integral first derivatives.
 Leave Link  701 at Fri Nov 10 14:55:23 2017, MaxMem=   134217728 cpu:               0.1 elap:               0.1
 (Enter /n/sw/g16_nehalem/g16/l702.exe)
 L702 exits ... SP integral derivatives will be done elsewhere.
 Leave Link  702 at Fri Nov 10 14:55:23 2017, MaxMem=   134217728 cpu:               0.0 elap:               0.0
 (Enter /n/sw/g16_nehalem/g16/l703.exe)
 Integral derivatives from FoFJK, PRISM(SPDF).
 Compute integral first derivatives, UseDBF=F ICtDFT=           0.
 Calling FoFJK, ICntrl=      2147 FMM=F ISym2X=0 I1Cent= 0 IOpClX= 0 NMat=1 NMatS=1 NMatT=0.
 FoFJK:  IHMeth= 8 ICntrl=    2147 DoSepK=F KAlg= 0 I1Cent=           0 FoldK=F
 IRaf=         0 NMat=       1 IRICut=       1 DoRegI=T DoRafI=F ISym2E= 0 IDoP0=3 IntGTp=3.
 FoFCou: FMM=F IPFlag=           0 FMFlag=      100000 FMFlg1=         800
         NFxFlg=           0 DoJE=F BraDBF=F KetDBF=F FulRan=T
         wScrn=  0.000000 ICntrl=      2147 IOpCl=  0 I1Cent=           0 NGrid=           0
         NMat0=    1 NMatS0=      1 NMatT0=    0 NMatD0=    1 NMtDS0=    0 NMtDT0=    0
 Symmetry not used in FoFCou.
 Leave Link  703 at Fri Nov 10 14:55:23 2017, MaxMem=   134217728 cpu:               0.0 elap:               0.0
 (Enter /n/sw/g16_nehalem/g16/l716.exe)
 Dipole        = 3.27825204D+00 7.34251697D-05 5.54801593D-06
 Polarizability= 0.00000000D+00 0.00000000D+00 0.00000000D+00
                 0.00000000D+00 0.00000000D+00 0.00000000D+00
 -------------------------------------------------------------------
 Center     Atomic                   Forces (Hartrees/Bohr)
 Number     Number              X              Y              Z
 -------------------------------------------------------------------
      1        6           0.000144078   -0.000000413   -0.000000032
      2        1           0.000010740   -0.000000212   -0.000000288
      3        1           0.000010745   -0.000000204    0.000000285
      4        1           0.000010782    0.000000286   -0.000000008
      5       17           0.000393424    0.000000321    0.000000025
      6       17          -0.000569770    0.000000223    0.000000018
 -------------------------------------------------------------------
 Cartesian Forces:  Max     0.000569770 RMS     0.000166754
 Z-matrix is all fixed cartesians, so copy forces.
 Leave Link  716 at Fri Nov 10 14:55:23 2017, MaxMem=   134217728 cpu:               0.0 elap:               0.0
 (Enter /n/sw/g16_nehalem/g16/l123.exe)
 IRC-IRC-IRC-IRC-IRC-IRC-IRC-IRC-IRC-IRC-IRC-IRC-IRC-IRC-IRC-IRC-IRC-IRC
 Pt132 Step number   1 out of a maximum of  20
 Using modified Bulirsch-Stoer corrector integration.
   Using distance weighted interpolants to fit PES.
 PreDWI: IReCr0= 2 IReCr1= 1 IReCr2= 1 IReCr3= 1
 Modified Bulirsch-Stoer Extrapolation Cycles:
    EPS =    0.000010000000000
    Cycle     1 NS=    48
      PEZero:  N= 2 I= 1 D=  1.86D-04 Err=  2.52D-08
    Cycle     2 NS=    64 Truncation Error =  0.000000025
 BS completed in    2 cycles and     112 integration steps.
 Maximum DWI energy   std dev =  0.000000001 at pt    47
 Maximum DWI gradient std dev =  0.001792214 at pt    39
 SUMMARY OF CORRECTOR INTEGRATION:
   Predictor End Point Energy =    -0.103887
   Old End Point Energy       =    -0.103887
   Corrected End Point Energy =    -0.103887
   Predictor End-Start Dist.  =     0.035762
   Old End-Start Dist.        =     0.035762
   New End-Start Dist.        =     0.035762
   New End-Old End Dist.      =     0.000013
 CORRECTOR INTEGRATION CONVERGENCE:
   Recorrection delta-x convergence threshold:    0.010000
   Delta-x Convergence Met
 Point Number: 132          Path Number:   1
                    CURRENT STRUCTURE
                Cartesian Coordinates (Ang):                
 ---------------------------------------------------------------------
 Center     Atomic                     Coordinates (Angstroms)
 Number     Number                        X           Y           Z
 ---------------------------------------------------------------------
      1          6                    0.450094    0.000068    0.000005
      2          1                    0.116213    0.541144    0.908950
      3          1                    0.116206    0.516717   -0.923040
      4          1                    0.116143   -1.057618    0.014109
      5         17                    2.235343   -0.000005   -0.000001
      6         17                   -2.399842   -0.000026   -0.000002
 ---------------------------------------------------------------------
   CHANGE IN THE REACTION COORDINATE =    0.03576
   NET REACTION COORDINATE UP TO THIS POINT =    4.69118
  # OF POINTS ALONG THE PATH = 132
  # OF STEPS =   1

 PES minimum detected on this side of the pathway.
    Magnitude of the gradient =      0.0001256
 Calculation of FORWARD path complete.
 Reaction path calculation complete.
 
 Energies reported relative to the TS energy of          -0.089515
 --------------------------------------------------------------------------
    Summary of reaction path following
 --------------------------------------------------------------------------
                        Energy    RxCoord
   1                    0.00000   0.00000
   2                    0.00000   0.00676
   3                   -0.00005   0.04250
   4                   -0.00011   0.07825
   5                   -0.00017   0.11400
   6                   -0.00025   0.14976
   7                   -0.00033   0.18552
   8                   -0.00043   0.22128
   9                   -0.00053   0.25703
  10                   -0.00065   0.29279
  11                   -0.00077   0.32855
  12                   -0.00090   0.36431
  13                   -0.00104   0.40007
  14                   -0.00119   0.43583
  15                   -0.00135   0.47159
  16                   -0.00151   0.50735
  17                   -0.00168   0.54311
  18                   -0.00186   0.57887
  19                   -0.00205   0.61463
  20                   -0.00224   0.65039
  21                   -0.00244   0.68615
  22                   -0.00265   0.72190
  23                   -0.00286   0.75766
  24                   -0.00307   0.79342
  25                   -0.00329   0.82918
  26                   -0.00352   0.86494
  27                   -0.00375   0.90070
  28                   -0.00398   0.93646
  29                   -0.00422   0.97222
  30                   -0.00445   1.00798
  31                   -0.00469   1.04374
  32                   -0.00494   1.07950
  33                   -0.00518   1.11526
  34                   -0.00542   1.15102
  35                   -0.00567   1.18678
  36                   -0.00591   1.22254
  37                   -0.00615   1.25830
  38                   -0.00639   1.29406
  39                   -0.00663   1.32982
  40                   -0.00687   1.36558
  41                   -0.00710   1.40134
  42                   -0.00734   1.43710
  43                   -0.00756   1.47286
  44                   -0.00779   1.50861
  45                   -0.00800   1.54437
  46                   -0.00822   1.58013
  47                   -0.00843   1.61589
  48                   -0.00863   1.65165
  49                   -0.00883   1.68741
  50                   -0.00902   1.72317
  51                   -0.00920   1.75893
  52                   -0.00938   1.79468
  53                   -0.00955   1.83044
  54                   -0.00971   1.86620
  55                   -0.00987   1.90195
  56                   -0.01002   1.93771
  57                   -0.01016   1.97346
  58                   -0.01030   2.00922
  59                   -0.01044   2.04497
  60                   -0.01056   2.08072
  61                   -0.01069   2.11648
  62                   -0.01080   2.15223
  63                   -0.01092   2.18799
  64                   -0.01103   2.22374
  65                   -0.01114   2.25950
  66                   -0.01124   2.29525
  67                   -0.01134   2.33101
  68                   -0.01144   2.36677
  69                   -0.01154   2.40253
  70                   -0.01163   2.43829
  71                   -0.01173   2.47404
  72                   -0.01182   2.50980
  73                   -0.01191   2.54556
  74                   -0.01199   2.58132
  75                   -0.01208   2.61708
  76                   -0.01216   2.65284
  77                   -0.01224   2.68860
  78                   -0.01232   2.72436
  79                   -0.01240   2.76012
  80                   -0.01247   2.79588
  81                   -0.01255   2.83164
  82                   -0.01262   2.86740
  83                   -0.01269   2.90316
  84                   -0.01276   2.93892
  85                   -0.01283   2.97468
  86                   -0.01289   3.01044
  87                   -0.01296   3.04620
  88                   -0.01302   3.08196
  89                   -0.01308   3.11772
  90                   -0.01314   3.15348
  91                   -0.01319   3.18924
  92                   -0.01325   3.22500
  93                   -0.01330   3.26076
  94                   -0.01336   3.29652
  95                   -0.01341   3.33228
  96                   -0.01346   3.36804
  97                   -0.01350   3.40380
  98                   -0.01355   3.43956
  99                   -0.01360   3.47532
 100                   -0.01364   3.51108
 101                   -0.01368   3.54684
 102                   -0.01372   3.58260
 103                   -0.01376   3.61836
 104                   -0.01380   3.65412
 105                   -0.01384   3.68988
 106                   -0.01387   3.72564
 107                   -0.01390   3.76140
 108                   -0.01394   3.79716
 109                   -0.01397   3.83292
 110                   -0.01400   3.86868
 111                   -0.01403   3.90445
 112                   -0.01405   3.94021
 113                   -0.01408   3.97597
 114                   -0.01411   4.01173
 115                   -0.01413   4.04749
 116                   -0.01415   4.08325
 117                   -0.01417   4.11901
 118                   -0.01419   4.15477
 119                   -0.01421   4.19053
 120                   -0.01423   4.22629
 121                   -0.01425   4.26205
 122                   -0.01426   4.29781
 123                   -0.01428   4.33357
 124                   -0.01429   4.36933
 125                   -0.01431   4.40509
 126                   -0.01432   4.44085
 127                   -0.01433   4.47661
 128                   -0.01434   4.51237
 129                   -0.01435   4.54813
 130                   -0.01435   4.58389
 131                   -0.01436   4.61966
 132                   -0.01437   4.65542
 133                   -0.01437   4.69118
 --------------------------------------------------------------------------
 
 Total number of points:                  132
 Total number of gradient calculations:   134
 Total number of Hessian calculations:     14
 IRC-IRC-IRC-IRC-IRC-IRC-IRC-IRC-IRC-IRC-IRC-IRC-IRC-IRC-IRC-IRC-IRC-IRC
 Leave Link  123 at Fri Nov 10 14:55:23 2017, MaxMem=   134217728 cpu:               0.0 elap:               0.0
 (Enter /n/sw/g16_nehalem/g16/l202.exe)
                          Input orientation:                          
 ---------------------------------------------------------------------
 Center     Atomic      Atomic             Coordinates (Angstroms)
 Number     Number       Type             X           Y           Z
 ---------------------------------------------------------------------
      1          6           0        0.450095    0.000068    0.000005
      2          1           0        0.116210    0.541144    0.908949
      3          1           0        0.116202    0.516717   -0.923039
      4          1           0        0.116140   -1.057617    0.014109
      5         17           0        2.235343   -0.000005   -0.000001
      6         17           0       -2.399842   -0.000026   -0.000002
 ---------------------------------------------------------------------
                    Distance matrix (angstroms):
                    1          2          3          4          5
     1  C    0.000000
     2  H    1.109243   0.000000
     3  H    1.109243   1.832150   0.000000
     4  H    1.109244   1.832150   1.832150   0.000000
     5  Cl   1.785248   2.368492   2.368492   2.368494   0.000000
     6  Cl   2.849937   2.729391   2.729378   2.729261   4.635185
                    6
     6  Cl   0.000000
 Symmetry turned off by external request.
 This structure is nearly, but not quite of a higher symmetry.
 Consider Symm=Loose if the higher symmetry is desired.
 Stoichiometry    CH3Cl2(1-)
 Framework group  C1[X(CH3Cl2)]
 Deg. of freedom    12
 Full point group                 C1      NOp   1
 Rotational constants (GHZ):         149.3860468           1.3289362           1.3289362
 Leave Link  202 at Fri Nov 10 14:55:23 2017, MaxMem=   134217728 cpu:               0.0 elap:               0.0
 (Enter /n/sw/g16_nehalem/g16/l601.exe)
 Copying SCF densities to generalized density rwf, IOpCl= 0 IROHF=0.

 **********************************************************************

            Population analysis using the SCF density.

 **********************************************************************

 Alpha  occ. eigenvalues --   -1.21703  -0.94331  -0.89643  -0.39742  -0.39742
 Alpha  occ. eigenvalues --   -0.38952  -0.27992  -0.27992  -0.13020  -0.13020
 Alpha  occ. eigenvalues --   -0.12742
 Alpha virt. eigenvalues --    0.19998   0.30905   0.30905   0.32696
          Condensed to atoms (all electrons):
               1          2          3          4          5          6
     1  C    4.099907   0.000000   0.000000   0.000000   0.000000   0.000000
     2  H    0.000000   0.883288   0.000000   0.000000   0.000000   0.000000
     3  H    0.000000   0.000000   0.883287   0.000000   0.000000   0.000000
     4  H    0.000000   0.000000   0.000000   0.883275   0.000000   0.000000
     5  Cl   0.000000   0.000000   0.000000   0.000000   7.272166   0.000000
     6  Cl   0.000000   0.000000   0.000000   0.000000   0.000000   7.978077
 Mulliken charges:
               1
     1  C   -0.099907
     2  H    0.116712
     3  H    0.116713
     4  H    0.116725
     5  Cl  -0.272166
     6  Cl  -0.978077
 Sum of Mulliken charges =  -1.00000
 Mulliken charges with hydrogens summed into heavy atoms:
               1
     1  C    0.250243
     5  Cl  -0.272166
     6  Cl  -0.978077
 APT charges:
               1
     1  C   -0.099907
     2  H    0.116712
     3  H    0.116713
     4  H    0.116725
     5  Cl  -0.272166
     6  Cl  -0.978077
 Sum of APT charges =  -1.00000
 APT charges with hydrogens summed into heavy atoms:
               1
     1  C    0.250243
     5  Cl  -0.272166
     6  Cl  -0.978077
 Charge=             -1.0000 electrons
 Dipole moment (field-independent basis, Debye):
    X=              8.3325    Y=              0.0002    Z=              0.0000  Tot=              8.3325
 N-N= 6.455691905873D+01 E-N=-6.168490195957D+01  KE=-5.725914195256D+01
  Exact polarizability:   0.000   0.000   0.000   0.000   0.000   0.000
 Approx polarizability:  22.318   0.000   4.681   0.000   0.000   4.681
 Leave Link  601 at Fri Nov 10 14:55:23 2017, MaxMem=   134217728 cpu:               0.0 elap:               0.0
 (Enter /n/sw/g16_nehalem/g16/l9999.exe)

 This type of calculation cannot be archived.


 A leading authority is anyone who has guessed right more than once.
 -- Frank A. Clark
 Job cpu time:       0 days  0 hours  1 minutes 54.1 seconds.
 Elapsed time:       0 days  0 hours  1 minutes 46.8 seconds.
 File lengths (MBytes):  RWF=      6 Int=      0 D2E=      0 Chk=      3 Scr=      1
 Normal termination of Gaussian 16 at Fri Nov 10 14:55:24 2017.
